# vtk DataFile Version 2.0
VTK from MATLAB
ASCII
DATASET UNSTRUCTURED_GRID
POINTS 20895 double
0.0000000000000000 0.0000000000000000 0.0000000000000000
0.0000000000000000 11.0000000000000000 0.0000000000000000
10.5000000000000000 11.0000000000000000 0.0000000000000000
10.5000000000000000 14.0000000000000000 0.0000000000000000
0.0000000000000000 14.0000000000000000 0.0000000000000000
0.0000000000000000 25.0000000000000000 0.0000000000000000
50.0000000000000000 0.0000000000000000 0.0000000000000000
50.0000000000000000 11.0000000000000000 0.0000000000000000
39.5000000000000000 11.0000000000000000 0.0000000000000000
39.5000000000000000 14.0000000000000000 0.0000000000000000
50.0000000000000000 14.0000000000000000 0.0000000000000000
50.0000000000000000 25.0000000000000000 0.0000000000000000
12.0000000000000000 12.5000000000000000 0.0000000000000000
38.0000000000000000 12.5000000000000000 0.0000000000000000
0.0000000000000000 25.0000000000000000 4.0999999999999996
50.0000000000000000 25.0000000000000000 4.0999999999999996
50.0000000000000000 14.0000000000000000 4.0999999999999996
39.5000000000000000 14.0000000000000000 4.0999999999999996
38.0000000000000000 12.5000000000000000 4.0999999999999996
39.5000000000000000 11.0000000000000000 4.0999999999999996
50.0000000000000000 11.0000000000000000 4.0999999999999996
50.0000000000000000 0.0000000000000000 4.0999999999999996
0.0000000000000000 0.0000000000000000 4.0999999999999996
0.0000000000000000 11.0000000000000000 4.0999999999999996
10.5000000000000000 11.0000000000000000 4.0999999999999996
12.0000000000000000 12.5000000000000000 4.0999999999999996
10.5000000000000000 14.0000000000000000 4.0999999999999996
0.0000000000000000 14.0000000000000000 4.0999999999999996
0.9999999999960776 0.0000000000000000 0.0000000000000000
1.9999999999920259 0.0000000000000000 0.0000000000000000
2.9999999999877831 0.0000000000000000 0.0000000000000000
3.9999999999841989 0.0000000000000000 0.0000000000000000
4.9999999999807869 0.0000000000000000 0.0000000000000000
5.9999999999773106 0.0000000000000000 0.0000000000000000
6.9999999999726299 0.0000000000000000 0.0000000000000000
7.9999999999674403 0.0000000000000000 0.0000000000000000
8.9999999999622489 0.0000000000000000 0.0000000000000000
9.9999999999570601 0.0000000000000000 0.0000000000000000
10.9999999999518696 0.0000000000000000 0.0000000000000000
11.9999999999466809 0.0000000000000000 0.0000000000000000
12.9999999999414904 0.0000000000000000 0.0000000000000000
13.9999999999362892 0.0000000000000000 0.0000000000000000
14.9999999999311004 0.0000000000000000 0.0000000000000000
15.9999999999265796 0.0000000000000000 0.0000000000000000
16.9999999999249098 0.0000000000000000 0.0000000000000000
17.9999999999232685 0.0000000000000000 0.0000000000000000
18.9999999999216307 0.0000000000000000 0.0000000000000000
19.9999999999199893 0.0000000000000000 0.0000000000000000
20.9999999999183586 0.0000000000000000 0.0000000000000000
21.9999999999167102 0.0000000000000000 0.0000000000000000
22.9999999999150795 0.0000000000000000 0.0000000000000000
23.9999999999134310 0.0000000000000000 0.0000000000000000
24.9999999999118003 0.0000000000000000 0.0000000000000000
25.9999999999101590 0.0000000000000000 0.0000000000000000
26.9999999999085212 0.0000000000000000 0.0000000000000000
27.9999999999068798 0.0000000000000000 0.0000000000000000
28.9999999999052314 0.0000000000000000 0.0000000000000000
29.9999999999036007 0.0000000000000000 0.0000000000000000
30.9999999999019593 0.0000000000000000 0.0000000000000000
31.9999999999016005 0.0000000000000000 0.0000000000000000
32.9999999999069615 0.0000000000000000 0.0000000000000000
33.9999999999124327 0.0000000000000000 0.0000000000000000
34.9999999999179110 0.0000000000000000 0.0000000000000000
35.9999999999233822 0.0000000000000000 0.0000000000000000
36.9999999999288534 0.0000000000000000 0.0000000000000000
37.9999999999343174 0.0000000000000000 0.0000000000000000
38.9999999999398028 0.0000000000000000 0.0000000000000000
39.9999999999452669 0.0000000000000000 0.0000000000000000
40.9999999999507523 0.0000000000000000 0.0000000000000000
41.9999999999562235 0.0000000000000000 0.0000000000000000
42.9999999999616875 0.0000000000000000 0.0000000000000000
43.9999999999671587 0.0000000000000000 0.0000000000000000
44.9999999999726370 0.0000000000000000 0.0000000000000000
45.9999999999781011 0.0000000000000000 0.0000000000000000
46.9999999999835794 0.0000000000000000 0.0000000000000000
47.9999999999890434 0.0000000000000000 0.0000000000000000
48.9999999999945288 0.0000000000000000 0.0000000000000000
50.0000000000000000 0.9166666666648406 0.0000000000000000
50.0000000000000000 1.8333333333293489 0.0000000000000000
50.0000000000000000 2.7499999999923119 0.0000000000000000
50.0000000000000000 3.6666666666548999 0.0000000000000000
50.0000000000000000 4.5833333333174879 0.0000000000000000
50.0000000000000000 5.4999999999802496 0.0000000000000000
50.0000000000000000 6.4166666666500634 0.0000000000000000
50.0000000000000000 7.3333333333200503 0.0000000000000000
50.0000000000000000 8.2499999999900382 0.0000000000000000
50.0000000000000000 9.1666666666600243 0.0000000000000000
50.0000000000000000 10.0833333333300104 0.0000000000000000
49.0789787625752822 11.0000000000000000 0.0000000000000000
48.2306671898568879 11.0000000000000000 0.0000000000000000
47.4493252610539926 11.0000000000000000 0.0000000000000000
46.7296662456049674 11.0000000000000000 0.0000000000000000
46.0668204338591423 11.0000000000000000 0.0000000000000000
45.4563027839796590 11.0000000000000000 0.0000000000000000
44.8939821907927197 11.0000000000000000 0.0000000000000000
44.3760538518906174 11.0000000000000000 0.0000000000000000
43.8990131558181105 11.0000000000000000 0.0000000000000000
43.4596323500937203 11.0000000000000000 0.0000000000000000
43.0549383150748071 11.0000000000000000 0.0000000000000000
42.6821927069934617 11.0000000000000000 0.0000000000000000
42.3388733740164582 11.0000000000000000 0.0000000000000000
42.0226572949403732 11.0000000000000000 0.0000000000000000
41.7314047792939533 11.0000000000000000 0.0000000000000000
41.4631451559459734 11.0000000000000000 0.0000000000000000
41.2160631166004805 11.0000000000000000 0.0000000000000000
40.9884869329556167 11.0000000000000000 0.0000000000000000
40.7788766781733187 11.0000000000000000 0.0000000000000000
40.5858140341979734 11.0000000000000000 0.0000000000000000
40.4079926583880393 11.0000000000000000 0.0000000000000000
40.2442093435102777 11.0000000000000000 0.0000000000000000
40.0933558398544818 11.0000000000000000 0.0000000000000000
39.9544114168946578 11.0000000000000000 0.0000000000000000
39.8264359497942877 11.0000000000000000 0.0000000000000000
39.7085634126817624 11.0000000000000000 0.0000000000000000
39.5999963089682865 11.0000000000000000 0.0000000000000000
0.0000000000000000 0.9166666666648406 0.0000000000000000
0.0000000000000000 1.8333333333293489 0.0000000000000000
0.0000000000000000 2.7499999999923119 0.0000000000000000
0.0000000000000000 3.6666666666548999 0.0000000000000000
0.0000000000000000 4.5833333333174879 0.0000000000000000
0.0000000000000000 5.4999999999802496 0.0000000000000000
0.0000000000000000 6.4166666666500634 0.0000000000000000
0.0000000000000000 7.3333333333200503 0.0000000000000000
0.0000000000000000 8.2499999999900382 0.0000000000000000
0.0000000000000000 9.1666666666600243 0.0000000000000000
0.0000000000000000 10.0833333333300104 0.0000000000000000
0.9210212374225736 11.0000000000000000 0.0000000000000000
1.7693328101389181 11.0000000000000000 0.0000000000000000
2.5506747389400370 11.0000000000000000 0.0000000000000000
3.2703337543875799 11.0000000000000000 0.0000000000000000
3.9331795661322091 11.0000000000000000 0.0000000000000000
4.5436972160084990 11.0000000000000000 0.0000000000000000
5.1060178091925721 11.0000000000000000 0.0000000000000000
5.6239461480953983 11.0000000000000000 0.0000000000000000
6.1009868441696522 11.0000000000000000 0.0000000000000000
6.5403676498956020 11.0000000000000000 0.0000000000000000
6.9450616849159044 11.0000000000000000 0.0000000000000000
7.3178072929984888 11.0000000000000000 0.0000000000000000
7.6611266259765918 11.0000000000000000 0.0000000000000000
7.9773427050536529 11.0000000000000000 0.0000000000000000
8.2685952207009485 11.0000000000000000 0.0000000000000000
8.5368548440496994 11.0000000000000000 0.0000000000000000
8.7839368833958531 11.0000000000000000 0.0000000000000000
9.0115130670413031 11.0000000000000000 0.0000000000000000
9.2211233218241446 11.0000000000000000 0.0000000000000000
9.4141859657999500 11.0000000000000000 0.0000000000000000
9.5920073416102891 11.0000000000000000 0.0000000000000000
9.7557906564883989 11.0000000000000000 0.0000000000000000
9.9066441601445003 11.0000000000000000 0.0000000000000000
10.0455885831045908 11.0000000000000000 0.0000000000000000
10.1735640502052007 11.0000000000000000 0.0000000000000000
10.2914365873179303 11.0000000000000000 0.0000000000000000
10.4000036910315607 11.0000000000000000 0.0000000000000000
0.0000000000000000 24.0833333333333286 0.0000000000000000
0.0000000000000000 23.1666666666666714 0.0000000000000000
0.0000000000000000 22.2500000000000000 0.0000000000000000
0.0000000000000000 21.3333333333333286 0.0000000000000000
0.0000000000000000 20.4166666666666607 0.0000000000000000
0.0000000000000000 19.5000000000000000 0.0000000000000000
0.0000000000000000 18.5833333333333286 0.0000000000000000
0.0000000000000000 17.6666666666666714 0.0000000000000000
0.0000000000000000 16.7500000000000000 0.0000000000000000
0.0000000000000000 15.8333333333333304 0.0000000000000000
0.0000000000000000 14.9166666666666696 0.0000000000000000
0.9210212374225736 14.0000000000000000 0.0000000000000000
1.7693328101389181 14.0000000000000000 0.0000000000000000
2.5506747389400370 14.0000000000000000 0.0000000000000000
3.2703337543875799 14.0000000000000000 0.0000000000000000
3.9331795661322091 14.0000000000000000 0.0000000000000000
4.5436972160084990 14.0000000000000000 0.0000000000000000
[...]
POINT_DATA 20895
VECTORS myfield1 double
0.0000000000000000 0.0000000000000000 0.0000000000000000
0.7543445414158407 0.3476153946184946 0.0410678491240519
0.8103322883049759 2.2418286991185785 0.4352768555305858
1.4490248421673280 7.4093116955604010 0.3892982347647108
1.8085301251943737 10.3684453087816912 0.2552180716228319
2.9387190955394220 9.9999999499962708 0.2720034999788711
0.0000000000000000 0.0000000000000000 0.0000000000000000
-0.7319026586658317 0.3083238877938231 -0.0184408602125793
-0.8179939153831828 2.1921030228223652 0.3316360339853390
-1.4050862850465140 7.3523682537206039 0.3100944758470789
-1.8396068704010551 10.3293122037018499 -0.1616031032219872
-2.9874022699095284 9.9999999499962708 -0.2424406448977211
1.1416422206015815 4.7534305021963190 1.1456687432805257
-1.1262750960587598 4.7061114544520386 1.0646025286241170
3.0303527783057005 9.9999999499962708 0.3157443961928394
-2.9221251275948998 9.9999999499962708 -0.1921683784058737
-1.7918754106975985 10.3629030738660930 -0.1612907432142726
-1.3730055358168904 7.4119233148748309 -0.3082167215044872
-1.1358038718370096 4.7363377086966283 -0.8660245591433970
-0.7514322227007550 2.2067247794822320 -0.3572175851047678
-0.7486070219998779 0.3225428332638103 -0.0122180870085694
0.0000000000000000 0.0000000000000000 0.0000000000000000
0.0000000000000000 0.0000000000000000 0.0000000000000000
0.7508090333425970 0.3216131551627713 0.0453749617775976
0.8086363950758645 2.1827670307159979 -0.2529433252661987
1.1601605666288655 4.7050971056691093 -0.7911003022881213
1.4090798201080197 7.3853595623863164 -0.2351739579209844
1.8953271486923431 10.3346743292996699 0.2545699090052513
0.0000000000000000 0.0000000000000000 0.0000000000000000
0.0000000000000000 0.0000000000000000 0.0000000000000000
0.0000000000000000 0.0000000000000000 0.0000000000000000
0.0000000000000000 0.0000000000000000 0.0000000000000000
0.0000000000000000 0.0000000000000000 0.0000000000000000
0.0000000000000000 0.0000000000000000 0.0000000000000000
0.0000000000000000 0.0000000000000000 0.0000000000000000
0.0000000000000000 0.0000000000000000 0.0000000000000000
0.0000000000000000 0.0000000000000000 0.0000000000000000
0.0000000000000000 0.0000000000000000 0.0000000000000000
0.0000000000000000 0.0000000000000000 0.0000000000000000
0.0000000000000000 0.0000000000000000 0.0000000000000000
0.0000000000000000 0.0000000000000000 0.0000000000000000
0.0000000000000000 0.0000000000000000 0.0000000000000000
0.0000000000000000 0.0000000000000000 0.0000000000000000
0.0000000000000000 0.0000000000000000 0.0000000000000000
0.0000000000000000 0.0000000000000000 0.0000000000000000
0.0000000000000000 0.0000000000000000 0.0000000000000000
0.0000000000000000 0.0000000000000000 0.0000000000000000
0.0000000000000000 0.0000000000000000 0.0000000000000000
0.0000000000000000 0.0000000000000000 0.0000000000000000
0.0000000000000000 0.0000000000000000 0.0000000000000000
0.0000000000000000 0.0000000000000000 0.0000000000000000
0.0000000000000000 0.0000000000000000 0.0000000000000000
0.0000000000000000 0.0000000000000000 0.0000000000000000
0.0000000000000000 0.0000000000000000 0.0000000000000000
0.0000000000000000 0.0000000000000000 0.0000000000000000
0.0000000000000000 0.0000000000000000 0.0000000000000000
0.0000000000000000 0.0000000000000000 0.0000000000000000
0.0000000000000000 0.0000000000000000 0.0000000000000000
0.0000000000000000 0.0000000000000000 0.0000000000000000
0.0000000000000000 0.0000000000000000 0.0000000000000000
0.0000000000000000 0.0000000000000000 0.0000000000000000
0.0000000000000000 0.0000000000000000 0.0000000000000000
0.0000000000000000 0.0000000000000000 0.0000000000000000
0.0000000000000000 0.0000000000000000 0.0000000000000000
0.0000000000000000 0.0000000000000000 0.0000000000000000
0.0000000000000000 0.0000000000000000 0.0000000000000000
0.0000000000000000 0.0000000000000000 0.0000000000000000
0.0000000000000000 0.0000000000000000 0.0000000000000000
0.0000000000000000 0.0000000000000000 0.0000000000000000
0.0000000000000000 0.0000000000000000 0.0000000000000000
0.0000000000000000 0.0000000000000000 0.0000000000000000
0.0000000000000000 0.0000000000000000 0.0000000000000000
0.0000000000000000 0.0000000000000000 0.0000000000000000
0.0000000000000000 0.0000000000000000 0.0000000000000000
0.0000000000000000 0.0000000000000000 0.0000000000000000
0.0000000000000000 0.0000000000000000 0.0000000000000000
0.0000000000000000 0.0000000000000000 0.0000000000000000
-0.1572101668907802 0.1598190480174125 0.1524791223793012
-0.3277213005488562 0.2550581563880244 0.0871582223338013
-0.4628160961381799 0.3116839044806600 0.0929406068660379
-0.6008906601136348 0.3776697911017441 0.0432967737210036
-0.7022974637098117 0.3786946168537285 0.0198291715038945
-0.7729309772780714 0.3867828818814997 -0.0067842229556992
-0.8184348944572859 0.3682317680518151 -0.0145918797695768
-0.8310857459928871 0.3457763695581915 -0.0189707513600963
-0.8208810076280862 0.3313512104340093 -0.0185344678867556
-0.7964335207220964 0.3200056028139671 -0.0173399007362763
-0.7661323854972441 0.3144030242437162 -0.0181341842739750
-0.7314029715828551 0.3389178435774674 -0.0235692348245163
-0.7238661706807253 0.3595870014120729 -0.0292403949665646
-0.7186398146304467 0.3861053399779157 -0.0327275763259003
-0.7087977919069314 0.4122839126778264 -0.0405615858126264
-0.6833149522654914 0.4463201901785783 -0.0467218516052487
-0.6760661005757214 0.4950636108334277 -0.0480607030224659
-0.6679430033857929 0.5452119459253573 -0.0501973026842072
-0.6577087280939343 0.6001105340905580 -0.0534631713387898
-0.6484810863699343 0.6598784924714759 -0.0563843987233697
-0.6414524690549234 0.7299183311626598 -0.0513833139982576
-0.6434214468349878 0.8025765347758819 -0.0489384645115791
-0.6402497494529359 0.8742136321572246 -0.0446779630897458
-0.6363609652358798 0.9568541340329468 -0.0352635959221686
-0.6597584390744897 1.0427207705795305 -0.0265117939807076
-0.6572634703087028 1.1160663577249894 -0.0171293409662097
-0.6556177869176667 1.2041680677916073 0.0004537136740664
-0.6957118304241728 1.3006851034618210 0.0231890485398704
-0.6999455823127497 1.3778897953665734 0.0379713405073913
-0.7004570346085177 1.4601570007987088 0.0583010261037339
-0.7270077803646257 1.5495012802012726 0.0887803456396973
-0.7333832636219054 1.6276669979607505 0.1058129287246203
-0.7399283574890224 1.7113057149180277 0.1341708431716966
-0.7601331057326990 1.7933798761337558 0.1655480421581238
-0.7617539334609118 1.8698092874137648 0.1896260205023690
-0.7797342294996127 1.9488498254038327 0.2257313842656950
-0.7779177593512461 2.0187941105040048 0.2470670308331446
-0.7715761873808052 2.0928240772750719 0.2788823038338749
0.1964127406523544 0.2601133847246955 0.1526447067959874
0.3880465802870880 0.3442372281939385 0.0787700349338939
0.5299219015699244 0.3579863163298649 0.0513345097905852
0.6455330426297358 0.3898069515274218 0.0325858339921849
0.7455202650989500 0.4052446135976912 0.0125677520448130
0.8110316270947884 0.4031936694380263 -0.0017636984467442
0.8414858729378388 0.3946040019542069 0.0017117880109488
0.8525394095520438 0.3804822072541565 0.0038135536714224
0.8407799169705255 0.3665833830505784 0.0115401010969834
0.8157010916952691 0.3570524010839942 0.0214558591933329
0.7836832430035700 0.3491422513122925 0.0317292121919887
0.7538662049533573 0.3745000184683162 0.0420388892219635
0.7514145164169845 0.3922604113953260 0.0392215046966552
0.7412506127077207 0.4117885203733009 0.0361385608726797
0.7259894939366582 0.4398146580739788 0.0330512117908037
0.7024420669661585 0.4786490049312814 0.0366340380373417
0.6989681272115895 0.5246947279148962 0.0378881438465436
0.6742741502624058 0.5709660267890013 0.0338798608133512
0.6599873913115646 0.6329587331406107 0.0396375756363055
0.6521127293693416 0.6997253801055188 0.0427702960060596
0.6431705900290184 0.7694986498563824 0.0468656693406649
0.6473037925484451 0.8430421343845874 0.0517142943062139
0.6402580560059538 0.9184331439375035 0.0594670124976897
0.6456385437187219 0.9963141057270511 0.0684492349804373
0.6402621585258091 1.0753465385895136 0.0769860546187913
0.6394694335507279 1.1637842368269593 0.0917628925521861
0.6726956577377317 1.2562258282647087 0.1060721859056093
0.6774695436508957 1.3252339197059795 0.1211909617014483
0.6701774348200454 1.4033512115621771 0.1386503875678389
0.6652819942848385 1.4947188204160724 0.1592439486333238
0.7172780773917703 1.5910363228152800 0.1866993172979712
0.6929413771083237 1.6609476899164424 0.2092609070327120
0.7643102303542283 1.7826400504110929 0.2483282282374380
0.7613139698062401 1.8371326667170991 0.2701699078818519
0.7584347695062069 1.9163815762166201 0.3006574174960397
0.7630815978211799 1.9941013484884462 0.3288332179525493
0.7492973594315107 2.0653186124496861 0.3592719425347330
0.8113639697781510 2.1888323079844771 0.4111943155250823
2.9307564805453565 10.0299976993740803 0.2751879090960857
2.9118989426002799 10.0470729883439756 0.2652366640606149
2.8690490010633640 10.1073318539646451 0.2703552588572484
2.8077322286514530 10.1183366480840764 0.2609663955030754
2.7348600834727237 10.1810798179161601 0.2618125251443690
2.6351776514474010 10.1993526533791883 0.2568840070936660
2.5303939776269075 10.2441442031977594 0.2486046511761397
2.3993496267096841 10.2877326615627247 0.2567638819282874
2.2580720954611895 10.3079393611162473 0.2553821828685093
2.1080673916657515 10.3418907265811963 0.2592788486067357
1.9575559548198203 10.3549618172841917 0.2569561505639482
1.7966402696513346 10.2209959088674545 0.2328113971201828
1.7836647918313504 10.0917165928133006 0.2114028570707386
1.7704674111099032 9.9736292986420043 0.1883775102855200
1.7375005846742371 9.8681268587849775 0.1691811447610312
1.7195013164691724 9.7540628541651380 0.1537005733136101
1.6996081984370197 9.6490642895495515 0.1379258117006577
1.6755705034286430 9.5491943220990425 0.1194726885328764
1.6338086130009062 9.4495856947990564 0.1072010764363718
1.6195184991597749 9.3394915341859459 0.0983955430848064
1.5821016215190342 9.2415190838342820 0.0857098165160694
1.5648910666203566 9.1297253649092838 0.0814838311300484
1.5447067693806447 9.0220534004737054 0.0764815303794025
1.5268459872921210 8.9150387114358871 0.0741572684949530
1.5106099357713438 8.8076602927879737 0.0766755909656808
1.4936283299710160 8.6979467809993043 0.0820642973047783
1.4975315043472379 8.5844873808877349 0.0907989856546095
1.4866050630430674 8.4827672611842999 0.1008824871712298
1.4713848088524510 8.3810743663266845 0.1125361796780947
1.4618978425719633 8.2730911291258753 0.1333490470796628
1.4820333468583651 8.1562997968858735 0.1542020470027701
1.4708053405122925 8.0726793749452153 0.1704539780764987
1.4534126768841784 7.9731624659311171 0.1985827859033920
1.4751140867915264 7.8533917113887375 0.2316283204990844
1.4614143759684866 7.7758315694280347 0.2521230171340070
1.4586719715095378 7.6836375947302651 0.2871651205987533
1.4440095273431710 7.6035242942038535 0.3095423245607904
1.4260784080137276 7.5249878820388485 0.3416968559670333
2.9435361796534836 9.9999999499962708 0.2684998508048277
2.9476680581108048 9.9999999499962708 0.2654569294538392
2.9447332180655645 9.9999999499962708 0.2594483648713758
2.9286341798888946 9.9999999499962708 0.2705500477955333
2.9001136402858454 9.9999999499962708 0.2661761951091423
2.8691153759851789 9.9999999499962708 0.2714304195829468
2.8380512270392346 9.9999999499962708 0.2788327296476704
2.7653120975285628 9.9999999499962708 0.3134434033397037
2.6952884666738255 9.9999999499962708 0.3085198613195128
2.6136421216692995 9.9999999499962708 0.3517467836576638
2.5037463864999574 9.9999999499962708 0.3547846602141898
2.3799823534044653 9.9999999499962708 0.3951707752519695
2.2379354469495323 9.9999999499962708 0.3961062574316516
2.0900719326962021 9.9999999499962708 0.4318567159848329
1.9203412811889460 9.9999999499962708 0.4420390917469874
1.7599529313097080 9.9999999499962708 0.4630411969183320
1.5663463302527778 9.9999999499962708 0.4779130998732273
1.3659097879789805 9.9999999499962708 0.4804361695701307
1.1997169685966127 9.9999999499962708 0.4648342349662651
1.0454595012461669 9.9999999499962708 0.5248151185263884
0.7259791003236673 10.0000001725138130 0.5937255694994136
0.5269565981401240 10.0000001725138130 0.4660750896725376
0.3852705212806000 10.0000001725138130 0.4768947505023054
0.2225840139793056 10.0000001725138130 0.4935286893644548
-0.0418027758026548 9.9999999499962708 0.5912585231055781
-0.2681034176425056 9.9999999499962708 0.4734494463638271
-0.3983595592094932 9.9999999499962708 0.4868013575484038
-0.6460043215774112 9.9999999499962708 0.5099284991482951
-0.8158588494519771 9.9999999499962708 0.3752221446828294
-0.9387536676830351 9.9999999499962708 0.5167712207497438
-1.2429007404644281 9.9999999499962708 0.4619225491202705
-1.4111107974617147 9.9999999499962708 0.4397158744082382
-1.5859776253015105 9.9999999499962708 0.4210862751555443
-1.7778277363703716 9.9999999499962708 0.4176181165579018
-1.9876984890402960 9.9999999499962708 0.3663281361511459
-2.1265553010314346 9.9999999499962708 0.3122568796910031
-2.2814510330486373 9.9999999499962708 0.3179933430974762
-2.4514997248486385 9.9999999499962708 0.2406007176977431
-2.5407411324800053 9.9999999499962708 0.1744474718847110
-2.6376289571637050 9.9999999499962708 0.1565172740493959
-2.7367919507328908 9.9999999499962708 0.0970782070348093
-2.8042109810062033 9.9999999499962708 0.0515117759271787
-2.8804052992441869 9.9999999499962708 0.0480276322437137
-2.9322288732598483 9.9999999499962708 -0.0307895792897730
-2.9491215210635056 9.9999999499962708 -0.0704964249031848
-2.9624141159510269 9.9999999499962708 -0.1145129474893406
-2.9816355284487912 9.9999999499962708 -0.1327831112702161
-2.9907831817808925 9.9999999499962708 -0.1765995668316004
-2.9895489547779004 9.9999999499962708 -0.2090716019770198
-2.9812476464022657 10.0258180797767213 -0.2432659355101138
-2.9547414065309234 10.0629652991636309 -0.2391224760540243
-2.9058381982428121 10.0794580954806872 -0.2312187699240085
-2.8485856033380648 10.1025632319789445 -0.2317496898426921
-2.7805399382269478 10.1404295445589945 -0.2357295618689052
-2.6821353425019976 10.1937619333617739 -0.2249792198460721
-2.5605691411897298 10.2163930155050977 -0.2114171819509932
-2.4322546360208435 10.2480923026966675 -0.2059868506155664
-2.2880615745789670 10.2776213338219993 -0.1932543185066787
-2.1368252301817150 10.2998870157032840 -0.1809371296595108
-1.9868691402515644 10.3166834895625570 -0.1703978875455477
-1.8279216673672591 10.1827836762207014 -0.1504478265914691
-1.8168777978360282 10.0541144663335889 -0.1425344229753534
-1.8008908272931325 9.9378488286599502 -0.1366580167745095
-1.7758930074611423 9.8272432511752434 -0.1331992575379617
-1.7538599650358497 9.7200616920071266 -0.1269655068150267
-1.7239016338713060 9.6167298100632888 -0.1246229509438712
-1.6851398919356360 9.5104009027216865 -0.1148299457257798
-1.6699659542758165 9.3993583308248390 -0.1074163150180761
-1.6331534886382317 9.3023858524347922 -0.1099044011106291
-1.5928499449730624 9.1963156489348172 -0.1003813064196614
-1.5724648772630387 9.0803440708148955 -0.0899985356160952
-1.5506328460581991 8.9718191614968195 -0.0833813212900732
-1.5298705976395308 8.8628933109348846 -0.0726289438929172
-1.5116053296124063 8.7566995489393733 -0.0620521720669598
-1.4942530272764500 8.6472309504260672 -0.0502628908916868
-1.4803567120097940 8.5432014086677306 -0.0339820222966593
-1.4591117908899713 8.4384251435004547 -0.0189496265713066
-1.4393558067495311 8.3293728245736496 0.0007697235773531
-1.4552597634257332 8.2155861144577074 0.0249308797368771
-1.4227513072586999 8.1244885804921037 0.0460816446327504
-1.4596644413218349 7.9880236154571511 0.0822636327715912
-1.4437821910734032 7.9128390249316380 0.1042070803375651
-1.4258373140068827 7.8168829681733634 0.1345981453145041
-1.4133506183228579 7.7248631369518046 0.1623951547041183
-1.3831235717650150 7.6377036812516410 0.1906088792985195
-1.4317961898015168 7.5013885811606063 0.2445060780924933
-1.4097982408482033 7.4414017377224617 0.2679433924789956
1.4235004014272687 7.3479033246095433 0.4056359280785495
1.4327191370096244 7.2390832005256431 0.4741003035838248
1.4302606107071865 7.1390937149487890 0.5158492528813943
1.4111666656019985 7.0571511361119157 0.5479410256890008
1.3827264271541631 6.9810608955043021 0.5843086603783361
1.3753810740966403 6.8640769633442451 0.6505573903385272
1.3836615670283834 6.7288678027947419 0.7179753088492091
1.3698265603797473 6.6446630617100633 0.7483046165079971
1.3465756698837053 6.5543658029007981 0.7809919112723913
1.3260310096742038 6.4417026247103717 0.8175450409842697
1.3057479987365108 6.3516310113146117 0.8560215949011668
1.3052118386188709 6.2137758197081085 0.9132398674019574
1.2962316316960887 6.0866536275395182 0.9516594093454074
1.2830871324416353 5.9797553875079776 0.9774944832423667
1.2579779541845462 5.8942344840598295 1.0037216607263173
1.2511773746481372 5.7305328144335306 1.0423712716165110
1.2462355815057291 5.5894987329933281 1.0690248003695297
1.2290124428772533 5.4820283129947942 1.0860169714406975
1.2161438514905307 5.3640835956879638 1.1077539585651506
1.1977055607030616 5.2124519540785670 1.1218315446679159
1.1846385009875500 5.1214292662529282 1.1310225613127780
1.1643431889021005 4.9872661350181993 1.1380846283835451
1.1524284392437523 4.8547411748797327 1.1435004153642983
1.1230786155800112 4.6635167133507816 1.1513044938136834
1.0873358391843173 4.4375938539631283 1.1350063191841684
1.0865052754308433 4.3693126462425083 1.1286142099943217
1.0781385616216874 4.2477656462075286 1.1274990491478185
1.0618632313346168 4.1488361548031847 1.1150509300339631
1.0496341317679301 4.0624771352794102 1.1052373108987523
0.9942505937736953 3.8306186507423114 1.0617371202870958
0.9979197964596691 3.7616714176958359 1.0428277178716607
0.9976661158158087 3.6883757950163880 1.0321966152504278
0.9760095457682390 3.5794932495681944 1.0026274110701903
0.9723768653130004 3.5073113851131374 0.9793650648827219
0.9342475584999012 3.3377094753554628 0.9291734401665278
0.9089920123926861 3.2187668172398083 0.8856162709308588
0.9151836050024379 3.1407121777505020 0.8471676183867107
0.9287322687667671 3.0926203547664519 0.8265422482781521
0.8710901219140685 2.9284374374917954 0.7654422123063431
0.8501891698952306 2.8158083127917264 0.7146218993380941
0.8544472783413151 2.7326722647712094 0.6766206983448486
0.8558088582995981 2.6549200385186236 0.6398528410444058
0.8430264224515140 2.5675615333814314 0.5981199703055735
0.8361430163070024 2.4800770954312097 0.5604384470919964
0.8113679010319709 2.3841531809523011 0.5120496032109674
0.8239342723566785 2.3135805270160437 0.4794782977543979
-1.3955000629520429 7.2661881913264956 0.3458208702502474
-1.3871391227201997 7.1746562372994678 0.3860171861638573
-1.3705308747314684 7.0913117526727767 0.4240526783085486
-1.3462596291840647 7.0056095366152977 0.4645269872634164
-1.3593631640070742 6.8611091935254338 0.5206275504476299
-1.3162720773029732 6.8066270969263298 0.5450883447778333
-1.3523021028978450 6.6305413572753231 0.6333060068639627
-1.3128572706555044 6.5731755320474692 0.6537811146205867
-1.2694393009969953 6.5075292062743753 0.6928029517827775
-1.2917543100651496 6.3402741930720037 0.7659239551650154
-1.2826366045822526 6.2091338112240164 0.8009531525073644
-1.2490293269113018 6.1641076612930323 0.8178384556742314
-1.2659733067456345 5.9543884928663351 0.8889281654253344
-1.2528363089164056 5.8726654173513326 0.9119817129674095
-1.2383773287973221 5.7848539030390427 0.9415745383429168
-1.2209106531149312 5.6693855931719472 0.9626644005875152
-1.2053343491867765 5.5789694487318346 0.9845409176428902
-1.2070749568471066 5.3725998185750097 1.0209695406985571
-1.1892820829908957 5.2885913877943587 1.0302949720781642
-1.1747091594959995 5.1850249426355886 1.0437676688042756
-1.1602836383051915 5.0847961178150820 1.0545210203754378
-1.1542283059750138 4.9371689414484825 1.0694420678312904