# vtk DataFile Version 2.0
VTK from MATLAB
ASCII
DATASET UNSTRUCTURED_GRID
POINTS 20895 double
0.0000000000000000 0.0000000000000000 0.0000000000000000
0.0919270674550595 11.2312618188694238 0.2619198014430229
10.6924523536319818 12.5580523218220517 0.4033957791863634
10.9495063815533484 17.9796698435636344 0.6564956266000108
0.6527545847221045 19.1080280846447152 1.2213726001921559
1.1743830767940604 29.9999999265240014 0.8854785576354667
50.0000000000000000 0.0000000000000000 0.0000000000000000
49.9240624695614912 11.0826696509463716 0.1166140425672511
39.4286770309330379 11.8289617850371869 0.2047482785037137
39.4496143629774565 17.3715105826905898 0.3057227121851900
49.6797097786594577 19.4436458664934264 0.3913433232841582
48.6607286592065691 29.9999999265240014 0.4161870886045119
12.3619672814529640 15.6079800494111716 0.7751150496304799
37.9988775800192187 14.4202404806062567 0.9530067031408767
1.4426830504438988 29.9999999265240014 5.0720086459788583
48.5783502759326211 29.9999999265240014 4.5353199094197487
49.6018269779095107 19.4249527662078592 4.4924654199656890
39.4409702015694918 17.3793509281991589 4.2181222449374465
38.0075134527221721 14.6102482558073952 3.7793693999795392
39.5647058392418742 12.0108905052148440 4.0725117895942242
49.9342199964020921 11.0073107261438867 4.2177940557158573
50.0000000000000000 0.0000000000000000 4.0999999999999996
0.0000000000000000 0.0000000000000000 4.0999999999999996
0.1341793391824763 11.1144107356048156 4.3639654367612719
10.7094279927849279 12.4297983086142718 4.2015407863235605
12.5045761238525088 15.3004728640819465 4.0859481172710987
11.1560958681228009 18.0094460016082998 4.6745074367656851
0.8911000638641143 19.2453322089532080 5.3109952899587531
0.9999999999960776 0.0000000000000000 0.0000000000000000
1.9999999999920259 0.0000000000000000 0.0000000000000000
2.9999999999877831 0.0000000000000000 0.0000000000000000
3.9999999999841989 0.0000000000000000 0.0000000000000000
4.9999999999807869 0.0000000000000000 0.0000000000000000
5.9999999999773106 0.0000000000000000 0.0000000000000000
6.9999999999726299 0.0000000000000000 0.0000000000000000
7.9999999999674403 0.0000000000000000 0.0000000000000000
8.9999999999622489 0.0000000000000000 0.0000000000000000
9.9999999999570601 0.0000000000000000 0.0000000000000000
10.9999999999518696 0.0000000000000000 0.0000000000000000
11.9999999999466809 0.0000000000000000 0.0000000000000000
12.9999999999414904 0.0000000000000000 0.0000000000000000
13.9999999999362892 0.0000000000000000 0.0000000000000000
14.9999999999311004 0.0000000000000000 0.0000000000000000
15.9999999999265796 0.0000000000000000 0.0000000000000000
16.9999999999249098 0.0000000000000000 0.0000000000000000
17.9999999999232685 0.0000000000000000 0.0000000000000000
18.9999999999216307 0.0000000000000000 0.0000000000000000
19.9999999999199893 0.0000000000000000 0.0000000000000000
20.9999999999183586 0.0000000000000000 0.0000000000000000
21.9999999999167102 0.0000000000000000 0.0000000000000000
22.9999999999150795 0.0000000000000000 0.0000000000000000
23.9999999999134310 0.0000000000000000 0.0000000000000000
24.9999999999118003 0.0000000000000000 0.0000000000000000
25.9999999999101590 0.0000000000000000 0.0000000000000000
26.9999999999085212 0.0000000000000000 0.0000000000000000
27.9999999999068798 0.0000000000000000 0.0000000000000000
28.9999999999052314 0.0000000000000000 0.0000000000000000
29.9999999999036007 0.0000000000000000 0.0000000000000000
30.9999999999019593 0.0000000000000000 0.0000000000000000
31.9999999999016005 0.0000000000000000 0.0000000000000000
32.9999999999069615 0.0000000000000000 0.0000000000000000
33.9999999999124327 0.0000000000000000 0.0000000000000000
34.9999999999179110 0.0000000000000000 0.0000000000000000
35.9999999999233822 0.0000000000000000 0.0000000000000000
36.9999999999288534 0.0000000000000000 0.0000000000000000
37.9999999999343174 0.0000000000000000 0.0000000000000000
38.9999999999398028 0.0000000000000000 0.0000000000000000
39.9999999999452669 0.0000000000000000 0.0000000000000000
40.9999999999507523 0.0000000000000000 0.0000000000000000
41.9999999999562235 0.0000000000000000 0.0000000000000000
42.9999999999616875 0.0000000000000000 0.0000000000000000
43.9999999999671587 0.0000000000000000 0.0000000000000000
44.9999999999726370 0.0000000000000000 0.0000000000000000
45.9999999999781011 0.0000000000000000 0.0000000000000000
46.9999999999835794 0.0000000000000000 0.0000000000000000
47.9999999999890434 0.0000000000000000 0.0000000000000000
48.9999999999945288 0.0000000000000000 0.0000000000000000
49.9375088936338756 0.9802567834103939 0.0884194969997398
49.8480588579628403 1.9368321198848730 0.0082375307400011
49.8091064597584037 2.8725045084660774 0.0041336923208651
49.7759910241158749 3.8039056043433352 -0.0050704903506856
49.7575684815318269 4.7146500122034576 -0.0006970510731688
49.7485588836497072 5.6285903773627268 0.0013585626771251
49.7500537838503192 6.5334261013869570 0.0065723730355615
49.7714283392813286 7.4400542982991658 0.0238718168066179
49.8055992436821455 8.3480146220445786 0.0494484794433942
49.8447293614281293 9.2563737803107955 0.0750683613144163
49.8844319545375399 10.1690751712986884 0.0966545901764239
49.0035895291912738 11.1208577558795341 0.1200799235318770
48.1591098646551856 11.1525334940477041 0.1234040430178754
47.3806817286261648 11.1840274840896541 0.1276704862154809
46.6650007865164582 11.2109803743911041 0.1293833232157895
46.0166038753740807 11.2385975107451177 0.1295838940892466
45.4100563904678367 11.2710072039742801 0.1328645055862296
44.8518365711549905 11.3002745724899576 0.1340238788683226
44.3396100464393967 11.3275118865167936 0.1323942344421766
43.8724256446393142 11.3550491133145801 0.1286941133651907
43.4349220778318141 11.3844436222397665 0.1296063545937300
43.0361335678525947 11.4114218574343003 0.1251124921845612
42.6653585860285247 11.4405088338858505 0.1256270082000972
42.3236124700382277 11.4683706911062178 0.1247494696679514
42.0063070005268600 11.4941010952128551 0.1205037346476634
41.7160355503904299 11.5199696037341148 0.1219099779442987
41.4478109307339082 11.5479874953879680 0.1235009840715491
41.1926270043177070 11.5735688284168017 0.1220323830851038
40.9633779137828427 11.5972105104334382 0.1254041513055140
40.7527594381031690 11.6218642149840559 0.1288869522345672
40.5526339466946624 11.6468119895940312 0.1334873597690700
40.3722352955362140 11.6695274300344778 0.1372222171172712
40.2049745770559923 11.6941808984350537 0.1450754846060718
40.0470050270671507 11.7169965043309414 0.1520755142603862
39.9056824074277756 11.7393035680721312 0.1596580496919558
39.7708204268027856 11.7614655008592024 0.1695910050982107
39.6515169591603751 11.7822420114952084 0.1770401882517406
39.5412209416463938 11.8062730938363583 0.1868039208576828
0.0668697144711739 1.0097263090150017 0.0361454769628097
0.1277765280752780 2.0070618114623837 0.0520807169481986
0.1814215556218833 2.9559462938651015 0.0866139455200186
0.2185488762999461 3.9042066864109022 0.0982163224656860
0.2500759301680924 4.8432653221639521 0.0839956902457928
0.2620687434071202 5.7700668496010259 0.0919211308177660
0.2532919213377519 6.6844102221493689 0.1191545175911440
0.2358023807113992 7.5941347747337691 0.1479855170614010
0.2070772849363449 8.4997996815584820 0.1770574376247377
0.1715365297891105 9.4079164315623931 0.2051106863364574
0.1306394040175021 10.3166130890313763 0.2332217452772808
1.0120279060581256 11.2682366842880608 0.2523862098542283
1.8595255442267817 11.2952320753187045 0.2397881647348118
2.6346742827022780 11.3202964712062162 0.2272189559287669
3.3434844695739154 11.3482279329117954 0.2142224536096327
3.9896645974701586 11.3799585397320886 0.2052296836044512
4.5975417916232830 11.4207141230927718 0.1995676151088333
5.1405446061269036 11.4533440325892784 0.1851541219607196
5.6481290674077407 11.4988908772567697 0.1799937225426640
6.1196398919239936 11.5514166112316765 0.1781502987241312
6.5530584738282380 11.5997740281236474 0.1732476039910975
6.9579800732733688 11.6536207268620711 0.1719337243647086
7.3265475612551709 11.7121667824643154 0.1745948612745057
7.6737929106836438 11.7705006339850833 0.1781558900832437
7.9882738797486281 11.8267129871148455 0.1824740995541456
8.2814704586050514 11.8881556720356407 0.1887096566654653
8.5755289306262199 11.9495674884329564 0.1962098297554017
8.8270022095646343 11.9968158374883203 0.2043089241536252
9.0544492741421276 12.0478635392499687 0.2138627593679299
9.2662090182426766 12.1066878500275035 0.2252015567545949
9.4993713934549842 12.1657206623566765 0.2417746573030896
9.6674900144718876 12.2103861567693865 0.2554752849905179
9.8841259879569474 12.2800738479194855 0.2772428896440901
10.0367409391502918 12.3138793943214537 0.2933270391799222
10.1814247733967527 12.3622244053247048 0.3123252339885164
10.3191932019332668 12.4090423399185337 0.3307940515583791
10.4357406965207566 12.4550364112041230 0.3515394516153151
10.5894263623833318 12.5244830388533295 0.3840318395846544
1.1638550985375027 29.0861475955612612 0.9003479031337018
1.1479744524852840 28.1785831441487318 0.9242219598788277
1.1232897860495827 27.2842556511250436 0.9502015137097846
1.0933780016084294 26.3716259230520578 0.9690571406844798
1.0609741389365506 25.4716615804856232 0.9890084708032536
1.0184900277345290 24.5576937453167936 1.0097074148820968
0.9724985007426200 23.6542960661205441 1.0351752649774830
0.9123939870366178 22.7520068214466207 1.0755375761709733
0.8487703620748850 21.8424640779361354 1.1137903748277136
0.7826241142493942 20.9356166328691131 1.1507188481622392
0.7174633237157571 20.0218616339154352 1.1858104972156973
1.5701164577423063 19.0417537942729211 1.1694774845548681
2.4139229747838766 18.9825451167943484 1.1222486031985899
3.1909298223245131 18.9284218893580487 1.0769049524832812
3.8949926078346020 18.8772989860175819 1.0398900756707332
4.5506877011375675 18.8256222128109023 1.0044088678579326
5.1528672939208340 18.7793855963485612 0.9710031152870378
[...]
POINT_DATA 20895
VECTORS myfield1 double
0.0000000000000000 0.0000000000000000 0.0000000000000000
0.0000919270674551 0.0002312618188694 0.0002619198014430
0.0001924523536320 0.0015580523218221 0.0004033957791864
0.0004495063815533 0.0039796698435636 0.0006564956266000
0.0006527545847221 0.0051080280846447 0.0012213726001922
0.0011743830767941 0.0049999999265240 0.0008854785576355
0.0000000000000000 0.0000000000000000 0.0000000000000000
-0.0000759375304385 0.0000826696509464 0.0001166140425673
-0.0000713229690670 0.0008289617850372 0.0002047482785037
-0.0000503856370225 0.0033715105826906 0.0003057227121852
-0.0003202902213405 0.0054436458664934 0.0003913433232842
-0.0013392713407934 0.0049999999265240 0.0004161870886045
0.0003619672814530 0.0031079800494112 0.0007751150496305
-0.0000011224199808 0.0019202404806063 0.0009530067031409
0.0014426830504439 0.0049999999265240 0.0009720086459789
-0.0014216497240674 0.0049999999265240 0.0004353199094197
-0.0003981730220905 0.0054249527662079 0.0003924654199657
-0.0000590297984305 0.0033793509281992 0.0001181222449374
0.0000075134527222 0.0021102482558074 -0.0003206306000205
0.0000647058392419 0.0010108905052148 -0.0000274882104058
-0.0000657800035979 0.0000073107261439 0.0001177940557159
0.0000000000000000 0.0000000000000000 0.0000000000000000
0.0000000000000000 0.0000000000000000 0.0000000000000000
0.0001341793391825 0.0001144107356048 0.0002639654367613
0.0002094279927849 0.0014297983086143 0.0001015407863236
0.0005045761238525 0.0028004728640819 -0.0000140518827289
0.0006560958681228 0.0040094460016083 0.0005745074367657
0.0008911000638641 0.0052453322089532 0.0012109952899588
0.0000000000000000 0.0000000000000000 0.0000000000000000
0.0000000000000000 0.0000000000000000 0.0000000000000000
0.0000000000000000 0.0000000000000000 0.0000000000000000
0.0000000000000000 0.0000000000000000 0.0000000000000000
0.0000000000000000 0.0000000000000000 0.0000000000000000
0.0000000000000000 0.0000000000000000 0.0000000000000000
0.0000000000000000 0.0000000000000000 0.0000000000000000
0.0000000000000000 0.0000000000000000 0.0000000000000000
0.0000000000000000 0.0000000000000000 0.0000000000000000
0.0000000000000000 0.0000000000000000 0.0000000000000000
0.0000000000000000 0.0000000000000000 0.0000000000000000
0.0000000000000000 0.0000000000000000 0.0000000000000000
0.0000000000000000 0.0000000000000000 0.0000000000000000
0.0000000000000000 0.0000000000000000 0.0000000000000000
0.0000000000000000 0.0000000000000000 0.0000000000000000
0.0000000000000000 0.0000000000000000 0.0000000000000000
0.0000000000000000 0.0000000000000000 0.0000000000000000
0.0000000000000000 0.0000000000000000 0.0000000000000000
0.0000000000000000 0.0000000000000000 0.0000000000000000
0.0000000000000000 0.0000000000000000 0.0000000000000000
0.0000000000000000 0.0000000000000000 0.0000000000000000
0.0000000000000000 0.0000000000000000 0.0000000000000000
0.0000000000000000 0.0000000000000000 0.0000000000000000
0.0000000000000000 0.0000000000000000 0.0000000000000000
0.0000000000000000 0.0000000000000000 0.0000000000000000
0.0000000000000000 0.0000000000000000 0.0000000000000000
0.0000000000000000 0.0000000000000000 0.0000000000000000
0.0000000000000000 0.0000000000000000 0.0000000000000000
0.0000000000000000 0.0000000000000000 0.0000000000000000
0.0000000000000000 0.0000000000000000 0.0000000000000000
0.0000000000000000 0.0000000000000000 0.0000000000000000
0.0000000000000000 0.0000000000000000 0.0000000000000000
0.0000000000000000 0.0000000000000000 0.0000000000000000
0.0000000000000000 0.0000000000000000 0.0000000000000000
0.0000000000000000 0.0000000000000000 0.0000000000000000
0.0000000000000000 0.0000000000000000 0.0000000000000000
0.0000000000000000 0.0000000000000000 0.0000000000000000
0.0000000000000000 0.0000000000000000 0.0000000000000000
0.0000000000000000 0.0000000000000000 0.0000000000000000
0.0000000000000000 0.0000000000000000 0.0000000000000000
0.0000000000000000 0.0000000000000000 0.0000000000000000
0.0000000000000000 0.0000000000000000 0.0000000000000000
0.0000000000000000 0.0000000000000000 0.0000000000000000
0.0000000000000000 0.0000000000000000 0.0000000000000000
0.0000000000000000 0.0000000000000000 0.0000000000000000
0.0000000000000000 0.0000000000000000 0.0000000000000000
0.0000000000000000 0.0000000000000000 0.0000000000000000
0.0000000000000000 0.0000000000000000 0.0000000000000000
0.0000000000000000 0.0000000000000000 0.0000000000000000
-0.0000624911063661 0.0000635901167456 0.0000884194969997
-0.0001519411420372 0.0001034987865555 0.0000082375307400
-0.0001908935402416 0.0001225045084738 0.0000041336923209
-0.0002240089758841 0.0001372389376884 -0.0000050704903507
-0.0002424315184682 0.0001313166788860 -0.0000006970510732
-0.0002514411163503 0.0001285903773825 0.0000013585626771
-0.0002499462161497 0.0001167594347369 0.0000065723730356
-0.0002285716607187 0.0001067209649791 0.0000238718168066
-0.0001944007563179 0.0000980146220545 0.0000494484794434
-0.0001552706385719 0.0000897071136508 0.0000750683613144
-0.0001155680454625 0.0000857418379687 0.0000966545901764
-0.0000753892333840 0.0001208577558795 0.0001200799235319
-0.0000715573252017 0.0001525334940477 0.0001234040430179
-0.0000686435324278 0.0001840274840897 0.0001276704862155
-0.0000646654590885 0.0002109803743911 0.0001293833232158
-0.0000502165584851 0.0002385975107451 0.0001295838940892
-0.0000462463935118 0.0002710072039743 0.0001328645055862
-0.0000421456196377 0.0003002745724900 0.0001340238788683
-0.0000364438054512 0.0003275118865168 0.0001323942344422
-0.0000265875111788 0.0003550491133146 0.0001286941133652
-0.0000247102722619 0.0003844436222398 0.0001296063545937
-0.0000188047472222 0.0004114218574343 0.0001251124921846
-0.0000168341209649 0.0004405088338859 0.0001256270082001
-0.0000152609039782 0.0004683706911062 0.0001247494696680
-0.0000163502944135 0.0004941010952129 0.0001205037346477
-0.0000153692289035 0.0005199696037341 0.0001219099779443
-0.0000153342252121 0.0005479874953880 0.0001235009840715
-0.0000234361122828 0.0005735688284168 0.0001220323830851
-0.0000251090191728 0.0005972105104334 0.0001254041513055
-0.0000261172400701 0.0006218642149841 0.0001288869522346
-0.0000331800875033 0.0006468119895940 0.0001334873597691
-0.0000357573628518 0.0006695274300345 0.0001372222171173
-0.0000392347664543 0.0006941808984351 0.0001450754846061
-0.0000463508127873 0.0007169965043309 0.0001520755142604
-0.0000487290094669 0.0007393035680721 0.0001596580496920
-0.0000556155229915 0.0007614655008592 0.0001695910050982
-0.0000570464535214 0.0007822420114952 0.0001770401882517
-0.0000587753673219 0.0008062730938364 0.0001868039208577
0.0000668697144712 0.0000930596423502 0.0000361454769628
0.0001277765280753 0.0001737284781330 0.0000520807169482
0.0001814215556219 0.0002059462938728 0.0000866139455200
0.0002185488762999 0.0002375400197560 0.0000982163224657
0.0002500759301681 0.0002599319888465 0.0000839956902458
0.0002620687434071 0.0002700668496208 0.0000919211308178
0.0002532919213378 0.0002677435554993 0.0001191545175911
0.0002358023807114 0.0002608014414137 0.0001479855170614
0.0002070772849363 0.0002497996815684 0.0001770574376247
0.0001715365297891 0.0002412497649024 0.0002051106863365
0.0001306394040175 0.0002332797557014 0.0002332217452773
0.0000910066686356 0.0002682366842881 0.0002523862098542
0.0000901927340879 0.0002952320753187 0.0002397881647348
0.0000839995437622 0.0003202964712062 0.0002272189559288
0.0000731507151863 0.0003482279329118 0.0002142224536096
0.0000564850313379 0.0003799585397321 0.0002052296836045
0.0000538445756148 0.0004207141230928 0.0001995676151088
0.0000345267969343 0.0004533440325893 0.0001851541219607
0.0000241829193123 0.0004988908772568 0.0001799937225427
0.0000186530477543 0.0005514166112317 0.0001781502987241
0.0000126908239326 0.0005997740281236 0.0001732476039911
0.0000129183883575 0.0006536207268621 0.0001719337243647
0.0000087402682567 0.0007121667824643 0.0001745948612745
0.0000126662847071 0.0007705006339851 0.0001781558900832
0.0000109311746950 0.0008267129871148 0.0001824740995541
0.0000128752379041 0.0008881556720356 0.0001887096566655
0.0000386740865765 0.0009495674884330 0.0001962098297554
0.0000430653261688 0.0009968158374883 0.0002043089241536
0.0000429362071008 0.0010478635392500 0.0002138627593679
0.0000450856964185 0.0011066878500275 0.0002252015567546
0.0000851854276550 0.0011657206623567 0.0002417746573031
0.0000754826728616 0.0012103861567694 0.0002554752849905
0.0001283353314685 0.0012800738479195 0.0002772428896441
0.0001300967790058 0.0013138793943215 0.0002933270391799
0.0001358361902922 0.0013622244053247 0.0003123252339885
0.0001456291517281 0.0014090423399185 0.0003307940515584
0.0001443041092028 0.0014550364112041 0.0003515394516153
0.0001894226713518 0.0015244830388533 0.0003840318395847
0.0011638550985375 0.0050028142622279 0.0009003479031337
0.0011479744524853 0.0050119164774821 0.0009242219598788
0.0011232897860496 0.0050342556511250 0.0009502015137098
0.0010933780016084 0.0050382925897187 0.0009690571406845
0.0010609741389366 0.0050549949138190 0.0009890084708033
0.0010184900277345 0.0050576937453168 0.0010097074148821
0.0009724985007426 0.0050709627327872 0.0010351752649775
0.0009123939870366 0.0050853401547799 0.0010755375761710
0.0008487703620749 0.0050924640779361 0.0011137903748277
0.0007826241142494 0.0051022832995358 0.0011507188481622
0.0007174633237158 0.0051051949672488 0.0011858104972157
0.0006490952203197 0.0050417537942729 0.0011694774845549
0.0006445901646450 0.0049825451167943 0.0011222486031986
0.0006402550833845 0.0049284218893580 0.0010769049524833
0.0006246588534470 0.0048772989860176 0.0010398900756707
0.0006175081350054 0.0048256222128109 0.0010044088678579
0.0006091700779123 0.0047793855963486 0.0009710031152870
0.0005975951170448 0.0047360182886438 0.0009385671378846
0.0005713732116383 0.0046899574900059 0.0009144300649667
0.0005683083393160 0.0046443690502582 0.0008880049211286
0.0005386741399599 0.0046030583921873 0.0008640497102451
0.0005322746337032 0.0045550549480460 0.0008427519896858
0.0005231850809774 0.0045151092240975 0.0008194735614370
0.0005008231172970 0.0044750282316568 0.0008009188409560
0.0004953348956202 0.0044302864504637 0.0007834517583370
0.0004885258705349 0.0043918845866376 0.0007650624641612
0.0004743508664553 0.0043553444794551 0.0007486486863194
0.0004688497581200 0.0043160334658501 0.0007356235677686
0.0004646195164698 0.0042788856479052 0.0007228779837647
0.0004599470289431 0.0042443295594659 0.0007107270195172
0.0004547971325619 0.0042115917138719 0.0006998055525089
0.0004518753509570 0.0041787398504757 0.0006910860989356
0.0004489069743509 0.0041470338746824 0.0006830834256411
0.0004487514841760 0.0041165072624230 0.0006754751843853
0.0004465232201081 0.0040876157148415 0.0006699892997354
0.0004463322191914 0.0040596620325922 0.0006653247973116
0.0004447266603108 0.0040326500739981 0.0006615412911613
0.0004433463373236 0.0040062645259785 0.0006590953217319
0.0011726101697786 0.0049999999265240 0.0008439059724618
0.0011717546732016 0.0049999999265240 0.0008077199213671
0.0011585455792147 0.0049999999265240 0.0007716490798886
0.0011437293739365 0.0049999999265240 0.0007349333549985
0.0011200027818199 0.0049999999265240 0.0006588633565729
0.0011119855079527 0.0049999999265240 0.0005971584974767
0.0011062387064309 0.0049999999265240 0.0005260193470621
0.0010984527984594 0.0049999999265240 0.0004792762135285
0.0010914938076651 0.0049999999265240 0.0004224632585534
0.0010919317016833 0.0049999999265240 0.0003846276611621
0.0010820916908346 0.0049999999265240 0.0003524138464153
0.0010697024632571 0.0049999999265240 0.0003404895416307
0.0010483721966306 0.0049999999265240 0.0003136279177246
0.0010310382409549 0.0049999999265240 0.0003206395341567
0.0009942612187419 0.0049999999265240 0.0003196958090998
0.0009541237166507 0.0049999999265240 0.0003231860174375
0.0009093126846121 0.0049999999265240 0.0003353223955060
0.0008573449836226 0.0049999999265240 0.0003544760266611
0.0007834034388876 0.0049999999265240 0.0003529395018721
0.0007757016653530 0.0049999999265240 0.0004169602953320
0.0007214646316816 0.0050000007152151 0.0004947402573521
0.0005829560203239 0.0050000007152151 0.0004137815628300
0.0005182887864184 0.0050000007152151 0.0004252283334898
0.0004936082151590 0.0050000007152151 0.0004319637763963
0.0002743459536740 0.0049999999265240 0.0004715376698016
0.0001140186020201 0.0049999999265240 0.0003727694039192
0.0000228760687936 0.0049999999265240 0.0003738588251136
-0.0001277154769531 0.0049999999265240 0.0003743951798809
-0.0002029575357533 0.0049999999265240 0.0003419500927990
-0.0003025884515317 0.0049999999265240 0.0003640485904555
-0.0004563546951316 0.0049999999265240 0.0003597934218381
-0.0005194390268029 0.0049999999265240 0.0003972383461520
-0.0005931904331260 0.0049999999265240 0.0003804663775946
-0.0006678599927139 0.0049999999265240 0.0003888696989625
-0.0007740742584319 0.0049999999265240 0.0003629769929308
-0.0008509876472058 0.0049999999265240 0.0003300004091582
-0.0009353197192688 0.0049999999265240 0.0003357864725414
-0.0010373913118367 0.0049999999265240 0.0003120453601098
-0.0010994793104754 0.0049999999265240 0.0003076302363333
-0.0011672382999200 0.0049999999265240 0.0003288209510012
-0.0012246521313449 0.0049999999265240 0.0003366869056107
-0.0012702000390260 0.0049999999265240 0.0003497540282261
-0.0013188170911363 0.0049999999265240 0.0003873642083821
-0.0013418760197247 0.0049999999265240 0.0003660633573156
-0.0013472541884656 0.0049999999265240 0.0003647833518594
-0.0013493187044196 0.0049999999265240 0.0003599570457335
-0.0013469680269628 0.0049999999265240 0.0003741512763564
-0.0013465971548730 0.0049999999265240 0.0003844465019900
-0.0013441344578859 0.0049999999265240 0.0003997614036790
-0.0013360393291442 0.0050270567301161 0.0004123275382908
-0.0013224734682487 0.0050780015544415 0.0004027027792810
-0.0012896012610552 0.0051074334699288 0.0003911382992150
-0.0012488362253383 0.0051518761356799 0.0003767806362244
-0.0011879436821338 0.0052140969779067 0.0003775084338163
-0.0010862265362304 0.0053047025061041 0.0003992285214643
-0.0009727098684808 0.0053293171244937 0.0003992317453332
-0.0008598515336541 0.0053684372909324 0.0003846773442784
-0.0007303356822701 0.0054026660959409 0.0003762404583118
-0.0005909792438137 0.0054227377511668 0.0003772003740043
-0.0004538300411579 0.0054338106277041 0.0003853994026588
-0.0003106126137993 0.0053100016658523 0.0003736388141334
-0.0003052520976352 0.0051933235377373 0.0003578826727780
-0.0002959816081980 0.0050895024715958 0.0003403962787485
-0.0002773348360922 0.0049935604359517 0.0003211871159991
-0.0002672832783205 0.0049013332229781 0.0003126645655973
-0.0002484792033633 0.0048174847050189 0.0002983805677695
-0.0002220658910135 0.0047294782081502 0.0002880068164304
-0.0002136159740816 0.0046427439376583 0.0002785397853035
-0.0001879453003261 0.0045638701456413 0.0002733904046610
-0.0001548856832291 0.0044817625005310 0.0002634092188333
-0.0001421774150446 0.0043920057934931 0.0002638954803686
-0.0001294234723932 0.0043129048002087 0.0002547528987302
-0.0001156225595617 0.0042375168600258 0.0002509237863126
-0.0001044276621950 0.0041658650938686 0.0002472230422813
-0.0000833672249256 0.0040934158890658 0.0002463602319702
-0.0000752344656839 0.0040235440491557 0.0002458447509519
-0.0000647530604291 0.0039567296787748 0.0002444432410657
-0.0000561915381867 0.0038915041564867 0.0002459407628292
-0.0000551067941800 0.0038299944216988 0.0002464468258056
-0.0000422982152814 0.0037719873396068 0.0002509962388419
-0.0000570440673168 0.0037051178273261 0.0002560825295052
-0.0000495692421439 0.0036598178874920 0.0002592773449035
-0.0000420951606638 0.0036074123368347 0.0002661886579174
-0.0000383179217966 0.0035575485420439 0.0002727703118929
-0.0000277293974898 0.0035078941396127 0.0002791551075956
-0.0000583937844060 0.0034486995894227 0.0002893711095621
-0.0000494074633963 0.0034164543714834 0.0002964157535401
0.0004451559650300 0.0039549472192891 0.0006545795933802
0.0004495266540405 0.0039259056545782 0.0006551607346805
0.0004503316195082 0.0038975152762161 0.0006541010696607
0.0004456589380750 0.0038708563685470 0.0006536220120284
0.0004368055327413 0.0038433916729490 0.0006542987660245
0.0004364265473672 0.0038084215878907 0.0006569313734354
0.0004442010173923 0.0037675370599336 0.0006569467752017
0.0004392373076066 0.0037464420008242 0.0006577976929450
0.0004280433611108 0.0037187592550547 0.0006621158587936
0.0004199504740287 0.0036815437856994 0.0006656017995989
0.0004080158578135 0.0036560767933017 0.0006693538753726
0.0004111426127972 0.0036111966912365 0.0006756626435942
0.0004099638556293 0.0035677831222528 0.0006796225099281
0.0004031283672471 0.0035435979705286 0.0006834561359120
0.0003833517669256 0.0035274427620286 0.0006917206345256
0.0003887299957776 0.0034541068040571 0.0007034192416523
0.0003916562202760 0.0033981659588945 0.0007109436135844
0.0003838819378861 0.0033711717461564 0.0007175638595661
0.0003781118566612 0.0033342452215431 0.0007303338355573
0.0003730473286844 0.0032746885077201 0.0007411873495795
0.0003696933631607 0.0032525231152480 0.0007452170650409
0.0003615076502258 0.0032003184240480 0.0007566334394344
0.0003618683861380 0.0031482738348564 0.0007692641247793
0.0003564333019895 0.0030771053611984 0.0007901161581999
0.0003517189045708 0.0029496459468240 0.0008085483676837
0.0003613842225600 0.0029185084831252 0.0008096707635271
0.0003604197565169 0.0028558895752883 0.0008247828218600
0.0003579007227816 0.0027959233295074 0.0008267675304947
0.0003606515166994 0.0027461929826702 0.0008370658696476
0.0003401875439435 0.0026204271674186 0.0008453276408129
0.0003472765284119 0.0025627423103029 0.0008345246678595
0.0003470635101122 0.0025082692106137 0.0008231773108769
0.0003348913938503 0.0024371001498559 0.0008071548214962
0.0003385700192936 0.0023851667198274 0.0007998554090560
0.0003193122141912 0.0022804913605238 0.0007878445558445
0.0003063763648776 0.0022040485494039 0.0007581938307067
0.0003065622635152 0.0021417665141127 0.0007236706663463
0.0003094928145704 0.0021029127860503 0.0006986389423404
0.0002709885709988 0.0020097139345985 0.0006648634699471
0.0002591514675787 0.0019387766040940 0.0006316142002010
0.0002545864462890 0.0018790856726534 0.0005985982957398
0.0002498368185271 0.0018264761419627 0.0005672907319191
0.0002356934898901 0.0017678795077170 0.0005309690718350
0.0002279441558385 0.0017119933450231 0.0005007006681576
0.0002054104159087 0.0016520918325248 0.0004632911891594
0.0002072456304667 0.0016037357214230 0.0004384652805505
-0.0000505859281417 0.0033292258501451 0.0003150358413168
-0.0000511758360148 0.0032863074966274 0.0003253027673517
-0.0000434791495188 0.0032448576821345 0.0003359632345984
-0.0000318756412100 0.0032009946649196 0.0003488716139432
-0.0000520883783432 0.0031323958646105 0.0003745113216512
-0.0000290673427598 0.0031050012199730 0.0003812951165874
-0.0000599918190316 0.0030183964901596 0.0004304350010084
-0.0000369043467986 0.0029907402695101 0.0004398012382105
-0.0000074317682283 0.0029583680361413 0.0004606168523392
-0.0000280641371485 0.0028820803477764 0.0005363562088525
-0.0000313132824055 0.0028072648440746 0.0005682974794919
-0.0000120654838484 0.0027885362396550 0.0005702747679252
-0.0000124649911971 0.0026917784240410 0.0006620751665548
-0.0000168304740540 0.0026474986793788 0.0006980825840182
-0.0000156323457044 0.0026015084750799 0.0007348899577994
-0.0000117067659029 0.0025311885974262 0.0007732519961775
-0.0000072938640436 0.0024798156482923 0.0008044502373825
-0.0000109205118034 0.0023747763148421 0.0008761082277106
-0.0000106980116685 0.0023156404452393 0.0008948583528227
-0.0000073188404260 0.0022468271780642 0.0009186271922158
-0.0000042239637742 0.0021777054848707 0.0009405885255684
-0.0000083194762907 0.0020817941380548 0.0009725349537138
-0.0000009263434049 0.0019702067922436 0.0009679564923651