# vtk DataFile Version 2.0
VTK from MATLAB
ASCII
DATASET UNSTRUCTURED_GRID
POINTS 20895 double
0.0000000000000000 0.0000000000000000 0.0000000000000000
-0.1792083258841000 11.4901852212651736 1.1508431335208280
10.2344570688478651 12.9686467620200645 0.8072505951688295
10.4998408710226592 18.2578601282898916 0.7920893592880207
0.1198002477806113 19.1424108046887014 1.5048816861619829
0.5129745193407687 29.9999999822073207 1.3856115921558765
50.0000000000000000 0.0000000000000000 0.0000000000000000
49.8433246638996721 11.1160865573172654 -0.1012403615749809
39.3722079032617387 12.5371699440582773 0.2541528872287403
39.1785317644108630 18.1855622052972699 0.2944586352907704
49.5537016778630885 19.1555806977564451 0.1870995935583025
49.1430907807310646 29.9999999822073207 0.1603643174914030
11.8524780118038624 15.7228057408585435 1.2241205690523789
37.8558773674551858 15.4680264234083715 0.8374585140043901
0.8146687517873946 29.9999999822073207 5.5174744314089246
49.1545127386223868 29.9999999822073207 4.2901399134483444
49.5667060430941504 19.1658776033370302 4.2868034277753946
39.2071905091503297 18.1542888068585491 4.2092394914221707
37.8664315627753467 15.4563811891890079 3.6810201568838492
39.5016971330644537 12.5063209264686481 4.0381652116743414
49.9036474943577346 11.1396548903772192 4.0062209918307179
50.0000000000000000 0.0000000000000000 4.0999999999999996
0.0000000000000000 0.0000000000000000 4.0999999999999996
0.0251964446032021 11.0260619338125796 5.2300169625982402
10.5279031812614594 12.5457655989696892 4.5940934427547671
12.0747867100017174 15.4897444356726979 4.1556512179708598
10.7534446267652655 18.2251220751202005 4.7305795085786873
0.4217322144596010 19.1718830301513279 5.5953841357853182
0.9999999999960776 0.0000000000000000 0.0000000000000000
1.9999999999920259 0.0000000000000000 0.0000000000000000
2.9999999999877831 0.0000000000000000 0.0000000000000000
3.9999999999841989 0.0000000000000000 0.0000000000000000
4.9999999999807869 0.0000000000000000 0.0000000000000000
5.9999999999773106 0.0000000000000000 0.0000000000000000
6.9999999999726299 0.0000000000000000 0.0000000000000000
7.9999999999674403 0.0000000000000000 0.0000000000000000
8.9999999999622489 0.0000000000000000 0.0000000000000000
9.9999999999570601 0.0000000000000000 0.0000000000000000
10.9999999999518696 0.0000000000000000 0.0000000000000000
11.9999999999466809 0.0000000000000000 0.0000000000000000
12.9999999999414904 0.0000000000000000 0.0000000000000000
13.9999999999362892 0.0000000000000000 0.0000000000000000
14.9999999999311004 0.0000000000000000 0.0000000000000000
15.9999999999265796 0.0000000000000000 0.0000000000000000
16.9999999999249098 0.0000000000000000 0.0000000000000000
17.9999999999232685 0.0000000000000000 0.0000000000000000
18.9999999999216307 0.0000000000000000 0.0000000000000000
19.9999999999199893 0.0000000000000000 0.0000000000000000
20.9999999999183586 0.0000000000000000 0.0000000000000000
21.9999999999167102 0.0000000000000000 0.0000000000000000
22.9999999999150795 0.0000000000000000 0.0000000000000000
23.9999999999134310 0.0000000000000000 0.0000000000000000
24.9999999999118003 0.0000000000000000 0.0000000000000000
25.9999999999101590 0.0000000000000000 0.0000000000000000
26.9999999999085212 0.0000000000000000 0.0000000000000000
27.9999999999068798 0.0000000000000000 0.0000000000000000
28.9999999999052314 0.0000000000000000 0.0000000000000000
29.9999999999036007 0.0000000000000000 0.0000000000000000
30.9999999999019593 0.0000000000000000 0.0000000000000000
31.9999999999016005 0.0000000000000000 0.0000000000000000
32.9999999999069615 0.0000000000000000 0.0000000000000000
33.9999999999124327 0.0000000000000000 0.0000000000000000
34.9999999999179110 0.0000000000000000 0.0000000000000000
35.9999999999233822 0.0000000000000000 0.0000000000000000
36.9999999999288534 0.0000000000000000 0.0000000000000000
37.9999999999343174 0.0000000000000000 0.0000000000000000
38.9999999999398028 0.0000000000000000 0.0000000000000000
39.9999999999452669 0.0000000000000000 0.0000000000000000
40.9999999999507523 0.0000000000000000 0.0000000000000000
41.9999999999562235 0.0000000000000000 0.0000000000000000
42.9999999999616875 0.0000000000000000 0.0000000000000000
43.9999999999671587 0.0000000000000000 0.0000000000000000
44.9999999999726370 0.0000000000000000 0.0000000000000000
45.9999999999781011 0.0000000000000000 0.0000000000000000
46.9999999999835794 0.0000000000000000 0.0000000000000000
47.9999999999890434 0.0000000000000000 0.0000000000000000
48.9999999999945288 0.0000000000000000 0.0000000000000000
49.9086101331996019 0.9994430496620945 0.0559335140446846
49.8294188770980782 1.9580440417388032 0.0344209340049144
49.7634964987248125 2.9017637692172014 0.0251601613591551
49.7017300026324378 3.8453199052420541 -0.0094687863597708
49.6578852328022933 4.7626922634913642 -0.0353397827685321
49.6365029091380165 5.6781616220301228 -0.0634841107877036
49.6327301308773770 6.5828506732351810 -0.0783138724127691
49.6524499440600025 7.4821228005632605 -0.0890548822164402
49.6901360434796686 8.3869562158024369 -0.0928655246096526
49.7376321637329539 9.2941647454688212 -0.0946368193625142
49.7898973584178677 10.2046959703383688 -0.0972502410276534
48.9241313110775167 11.1676079738527516 -0.0873493140834883
48.0812124970639374 11.2101452577682625 -0.0754628170203838
47.3040952937971042 11.2531062860615272 -0.0635722325464796
46.5903369889785708 11.2916649669633813 -0.0558813908486048
45.9447680038638850 11.3327888682902742 -0.0486835641177291
45.3405427840728734 11.3810187942983205 -0.0387080948712432
44.7843756750772712 11.4276963349680223 -0.0303411274147029
44.2742855980985937 11.4750515301187814 -0.0241479243389539
43.8092303959490508 11.5253821715975189 -0.0187786180525443
43.3749936239895248 11.5795985385201252 -0.0072755265700883
42.9775227257803039 11.6342145362463150 -0.0004113540079751
42.6086110004327310 11.6892646626511070 0.0091288264807154
42.2695688691383538 11.7475252586491035 0.0186530188698593
41.9497324810590726 11.8057394907228321 0.0276064681690570
41.6616530355708719 11.8595210115983818 0.0384475138111248
41.3963565091274361 11.9196078266447678 0.0506179961967709
41.1352943775044437 11.9797636230717881 0.0644579318400147
40.9073823646358719 12.0325476349061642 0.0774325054175035
40.6986904116801256 12.0865808058644042 0.0898499248266883
40.4950493395942175 12.1430197783709204 0.1078670307928552
40.3155218975644729 12.1934733433547891 0.1186940859985073
40.1497451420957674 12.2466908746603931 0.1372874868358759
39.9900006601189233 12.2975522239618673 0.1549093734712435
39.8510365418098544 12.3453621821775741 0.1702304310096237
39.7151824620734715 12.3939265302557864 0.1908105237220443
39.5988909272667442 12.4375315325615254 0.2038911893899641
39.4936099946802130 12.4855860404403209 0.2211542525466644
0.0663851422242934 1.2049146363370227 0.3104855360462598
0.1275481456668671 2.3022956410456241 0.2759187902807204
0.1696569823250033 3.2552377414047267 0.2851668488714409
0.1871665810588304 4.2127705265693791 0.3411658545283300
0.2001603669753318 5.1579364951967932 0.3913703499252192
0.1907245806188780 6.0725197561119257 0.4714796733402088
0.1573422155149852 6.9771775386952690 0.5635962813789298
0.1071690919164125 7.8800460796942540 0.6715443840957634
0.0412027542027219 8.7807276548229112 0.7895616428849632
-0.0321342738454282 9.6833303851346031 0.9145645235436352
-0.1081130284784107 10.5843163238125086 1.0359234504353405
0.7381105273291872 11.5650221573512137 1.1170170626037275
1.5857560310167174 11.6282342694539178 1.0846974821165638
2.3605135132639363 11.6861870771011827 1.0522061660667330
3.0692718666564902 11.7437968210474803 1.0214861589745519
3.7166171953356844 11.8016409567271534 1.0006317298603378
4.3247694912436465 11.8603427822900684 0.9756534384892626
4.8654635067026906 11.9113756863889790 0.9463557579630603
5.3676829622480895 11.9714975351235076 0.9293019923416800
5.8413552143613297 12.0312334765868769 0.9077640187169780
6.2645695138177553 12.0828919129276926 0.8841737547447346
6.6552550934377948 12.1392813978765233 0.8664672299282103
7.0221642733529039 12.1997600676934326 0.8528020448197480
7.3603128317321662 12.2547464882900634 0.8345741042902090
7.6693807271344472 12.3104693911709404 0.8247524099974147
7.9565861886910492 12.3663720120815928 0.8139496121935752
8.2242859413406570 12.4170522570145039 0.7991460492836912
8.4686514535924911 12.4653588399408406 0.7897672934665749
8.6905192410176095 12.5161388198757226 0.7886956612933864
8.8974824084194672 12.5691829730972806 0.7844905208932159
9.1031861801955944 12.6160608097585225 0.7726772027362160
9.2702134758830557 12.6624413394581623 0.7807913343614882
9.4629491540385544 12.7207139267393270 0.7735340675823742
9.6110206546184180 12.7533698027577813 0.7767684095345998
9.7469424908844022 12.7968212043369878 0.7848473928487162
9.8777569470002362 12.8395369166816078 0.7890261765812738
9.9891430408548292 12.8820526160398749 0.7959116105117146
10.1345179979068423 12.9416231463042184 0.8018126160393395
0.5086292796443072 29.0947453218152283 1.3895735736406107
0.5016206077309924 28.1843499919239449 1.3873731849430020
0.4877645959241965 27.2927847035676336 1.3952009132726415
0.4668661676701308 26.3790897534060385 1.3972259501177171
0.4424307597016179 25.4895974983016131 1.4074396555996964
0.4076712599540790 24.5788476625770826 1.4158892319928327
0.3720335082552302 23.6810434017629063 1.4236835645921480
0.3256724395545971 22.7820799130205423 1.4434326550741399
0.2762629226102997 21.8715303625338180 1.4586000704922961
0.2234197403504073 20.9695364969814193 1.4765316973680669
0.1708080884270144 20.0552005318775741 1.4915504393161274
1.0370653859888179 19.0908013488659591 1.4380465217999279
1.8809926091306890 19.0465253814203095 1.3756493780363506
2.6577739398468441 19.0061911332709137 1.3181913841775630
3.3660995361977202 18.9719986860536522 1.2636021679600002
4.0230215317810574 18.9351961204170962 1.2151681725795676
[...]
POINT_DATA 20895
VECTORS myfield1 double
0.0000000000000000 0.0000000000000000 0.0000000000000000
-0.0001792083258841 0.0004901852212652 0.0011508431335208
-0.0002655429311521 0.0019686467620201 0.0008072505951688
-0.0000001591289773 0.0042578601282899 0.0007920893592880
0.0001198002477806 0.0051424108046887 0.0015048816861620
0.0005129745193408 0.0049999999822073 0.0013856115921559
0.0000000000000000 0.0000000000000000 0.0000000000000000
-0.0001566753361003 0.0001160865573173 -0.0001012403615750
-0.0001277920967383 0.0015371699440583 0.0002541528872287
-0.0003214682355891 0.0041855622052973 0.0002944586352908
-0.0004462983221369 0.0051555806977564 0.0001870995935583
-0.0008569092192689 0.0049999999822073 0.0001603643174914
-0.0001475219881961 0.0032228057408585 0.0012241205690524
-0.0001441226325448 0.0029680264234084 0.0008374585140044
0.0008146687517874 0.0049999999822073 0.0014174744314089
-0.0008454872613776 0.0049999999822073 0.0001901399134483
-0.0004332939569058 0.0051658776033370 0.0001868034277754
-0.0002928094908497 0.0041542888068585 0.0001092394914222
-0.0001335684372247 0.0029563811891890 -0.0004189798431162
0.0000016971330645 0.0015063209264686 -0.0000618347883257
-0.0000963525056423 0.0001396548903772 -0.0000937790081693
0.0000000000000000 0.0000000000000000 0.0000000000000000
0.0000000000000000 0.0000000000000000 0.0000000000000000
0.0000251964446032 0.0000260619338126 0.0011300169625982
0.0000279031812615 0.0015457655989697 0.0004940934427548
0.0000747867100017 0.0029897444356727 0.0000556512179709
0.0002534446267653 0.0042251220751202 0.0006305795085787
0.0004217322144596 0.0051718830301513 0.0014953841357853
0.0000000000000000 0.0000000000000000 0.0000000000000000
0.0000000000000000 0.0000000000000000 0.0000000000000000
0.0000000000000000 0.0000000000000000 0.0000000000000000
0.0000000000000000 0.0000000000000000 0.0000000000000000
0.0000000000000000 0.0000000000000000 0.0000000000000000
0.0000000000000000 0.0000000000000000 0.0000000000000000
0.0000000000000000 0.0000000000000000 0.0000000000000000
0.0000000000000000 0.0000000000000000 0.0000000000000000
0.0000000000000000 0.0000000000000000 0.0000000000000000
0.0000000000000000 0.0000000000000000 0.0000000000000000
0.0000000000000000 0.0000000000000000 0.0000000000000000
0.0000000000000000 0.0000000000000000 0.0000000000000000
0.0000000000000000 0.0000000000000000 0.0000000000000000
0.0000000000000000 0.0000000000000000 0.0000000000000000
0.0000000000000000 0.0000000000000000 0.0000000000000000
0.0000000000000000 0.0000000000000000 0.0000000000000000
0.0000000000000000 0.0000000000000000 0.0000000000000000
0.0000000000000000 0.0000000000000000 0.0000000000000000
0.0000000000000000 0.0000000000000000 0.0000000000000000
0.0000000000000000 0.0000000000000000 0.0000000000000000
0.0000000000000000 0.0000000000000000 0.0000000000000000
0.0000000000000000 0.0000000000000000 0.0000000000000000
0.0000000000000000 0.0000000000000000 0.0000000000000000
0.0000000000000000 0.0000000000000000 0.0000000000000000
0.0000000000000000 0.0000000000000000 0.0000000000000000
0.0000000000000000 0.0000000000000000 0.0000000000000000
0.0000000000000000 0.0000000000000000 0.0000000000000000
0.0000000000000000 0.0000000000000000 0.0000000000000000
0.0000000000000000 0.0000000000000000 0.0000000000000000
0.0000000000000000 0.0000000000000000 0.0000000000000000
0.0000000000000000 0.0000000000000000 0.0000000000000000
0.0000000000000000 0.0000000000000000 0.0000000000000000
0.0000000000000000 0.0000000000000000 0.0000000000000000
0.0000000000000000 0.0000000000000000 0.0000000000000000
0.0000000000000000 0.0000000000000000 0.0000000000000000
0.0000000000000000 0.0000000000000000 0.0000000000000000
0.0000000000000000 0.0000000000000000 0.0000000000000000
0.0000000000000000 0.0000000000000000 0.0000000000000000
0.0000000000000000 0.0000000000000000 0.0000000000000000
0.0000000000000000 0.0000000000000000 0.0000000000000000
0.0000000000000000 0.0000000000000000 0.0000000000000000
0.0000000000000000 0.0000000000000000 0.0000000000000000
0.0000000000000000 0.0000000000000000 0.0000000000000000
0.0000000000000000 0.0000000000000000 0.0000000000000000
0.0000000000000000 0.0000000000000000 0.0000000000000000
0.0000000000000000 0.0000000000000000 0.0000000000000000
0.0000000000000000 0.0000000000000000 0.0000000000000000
0.0000000000000000 0.0000000000000000 0.0000000000000000
0.0000000000000000 0.0000000000000000 0.0000000000000000
-0.0000913898668004 0.0000827763829973 0.0000559335140447
-0.0001705811229019 0.0001247107084095 0.0000344209340049
-0.0002365035012752 0.0001517637692249 0.0000251601613592
-0.0002982699973676 0.0001786532385872 -0.0000094687863598
-0.0003421147671977 0.0001793589301739 -0.0000353397827685
-0.0003634970908620 0.0001781616220499 -0.0000634841107877
-0.0003672698691226 0.0001661840065851 -0.0000783138724128
-0.0003475500559400 0.0001487894672432 -0.0000890548822164
-0.0003098639565203 0.0001369562158124 -0.0000928655246097
-0.0002623678362670 0.0001274980788088 -0.0000946368193625
-0.0002101026415821 0.0001213626370084 -0.0000972502410277
-0.0001548474514978 0.0001676079738528 -0.0000873493140835
-0.0001494546927929 0.0002101452577683 -0.0000754628170204
-0.0001452299672569 0.0002531062860615 -0.0000635722325465
-0.0001393292566264 0.0002916649669634 -0.0000558813908486
-0.0001220524299953 0.0003327888682903 -0.0000486835641177
-0.0001157599999068 0.0003810187942983 -0.0000387080948712
-0.0001096065157155 0.0004276963349680 -0.0000303411274147
-0.0001017682537920 0.0004750515301188 -0.0000241479243390
-0.0000897827598691 0.0005253821715975 -0.0000187786180525
-0.0000846387261042 0.0005795985385201 -0.0000072755265701
-0.0000774155892945 0.0006342145362463 -0.0000004113540080
-0.0000735817065607 0.0006892646626511 0.0000091288264807
-0.0000693045048781 0.0007475252586491 0.0000186530188699
-0.0000729248138813 0.0008057394907228 0.0000276064681691
-0.0000697517437231 0.0008595210115984 0.0000384475138111
-0.0000667886468185 0.0009196078266448 0.0000506179961968
-0.0000807687390960 0.0009797636230718 0.0000644579318400
-0.0000811045683197 0.0010325476349062 0.0000774325054175
-0.0000801862664932 0.0010865808058644 0.0000898499248267
-0.0000907646946038 0.0011430197783709 0.0001078670307929
-0.0000924707608236 0.0011934733433548 0.0001186940859985
-0.0000944642014145 0.0012466908746604 0.0001372874868359
-0.0001033551797356 0.0012975522239619 0.0001549093734712
-0.0001033748750848 0.0013453621821776 0.0001702304310096
-0.0001112534877208 0.0013939265302558 0.0001908105237220
-0.0001096724854150 0.0014375315325615 0.0002038911893900
-0.0001063863142881 0.0014855860404403 0.0002211542525467
0.0000663851422243 0.0002882479696722 0.0003104855360463
0.0001275481456669 0.0004689623077163 0.0002759187902807
0.0001696569823250 0.0005052377414124 0.0002851668488714
0.0001871665810588 0.0005461038599145 0.0003411658545283
0.0002001603669753 0.0005746031618793 0.0003913703499252
0.0001907245806189 0.0005725197561317 0.0004714796733402
0.0001573422155150 0.0005605108720452 0.0005635962813789
0.0001071690919164 0.0005467127463742 0.0006715443840958
0.0000412027542027 0.0005307276548329 0.0007895616428850
-0.0000321342738454 0.0005166637184746 0.0009145645235436
-0.0001081130284784 0.0005009829904825 0.0010359234504353
-0.0001829107100934 0.0005650221573512 0.0011170170626037
-0.0001835767791222 0.0006282342694539 0.0010846974821166
-0.0001901612256761 0.0006861870771012 0.0010522061660667
-0.0002010618877311 0.0007437968210475 0.0010214861589746
-0.0002165623707965 0.0008016409567272 0.0010006317298603
-0.0002189277247649 0.0008603427822901 0.0009756534384893
-0.0002405543024899 0.0009113756863890 0.0009463557579631
-0.0002562631858473 0.0009714975351235 0.0009293019923417
-0.0002596316298083 0.0010312334765869 0.0009077640187170
-0.0002757981360778 0.0010828919129277 0.0008841737547447
-0.0002898065914781 0.0011392813978765 0.0008664672299282
-0.0002956430196456 0.0011997600676934 0.0008528020448197
-0.0003008137942444 0.0012547464882901 0.0008345741042902
-0.0003079619779192 0.0013104693911709 0.0008247524099974
-0.0003120090320099 0.0013663720120816 0.0008139496121936
-0.0003125689027090 0.0014170522570145 0.0007991460492837
-0.0003152854298034 0.0014653588399408 0.0007897672934666
-0.0003209938260237 0.0015161388198757 0.0007886956612934
-0.0003236409134047 0.0015691829730973 0.0007844905208932
-0.0003109997856044 0.0016160608097585 0.0007726772027362
-0.0003217938657272 0.0016624413394582 0.0007807913343615
-0.0002928415024498 0.0017207139267393 0.0007735340675824
-0.0002956235055261 0.0017533698027578 0.0007767684095346
-0.0002986460922202 0.0017968212043370 0.0007848473928487
-0.0002958071032050 0.0018395369166816 0.0007890261765813
-0.0003022935464631 0.0018820526160399 0.0007959116105117
-0.0002654856931247 0.0019416231463042 0.0008018126160393
0.0005086292796443 0.0050114119884819 0.0013895735736406
0.0005016206077310 0.0050176833252573 0.0013873731849430
0.0004877645959242 0.0050427847035676 0.0013952009132726
0.0004668661676701 0.0050457564200727 0.0013972259501177
0.0004424307597016 0.0050729308316350 0.0014074396555997
0.0004076712599541 0.0050788476625771 0.0014158892319928
0.0003720335082552 0.0050977100684296 0.0014236835645921
0.0003256724395546 0.0051154132463539 0.0014434326550741
0.0002762629226103 0.0051215303625338 0.0014586000704923
0.0002234197403504 0.0051362031636481 0.0014765316973681
0.0001708080884270 0.0051385338652109 0.0014915504393161
0.0001160441485662 0.0050908013488660 0.0014380465217999
0.0001116597989918 0.0050465253814203 0.0013756493780364
0.0001070992009068 0.0050061911332709 0.0013181913841776
0.0000957657818101 0.0049719986860537 0.0012636021679600
0.0000898419656488 0.0049351961204171 0.0012151681725796
0.0000836477785617 0.0049023137619328 0.0011694400395677
0.0000759070731164 0.0048724558484398 0.0011252312657153
0.0000581700519912 0.0048427263902461 0.0010851876436441
0.0000557462683896 0.0048100449729447 0.0010513098903936
0.0000362734698928 0.0047827467006079 0.0010142860591571
0.0000319509748074 0.0047480850046574 0.0009858202041119
0.0000261916815727 0.0047192856343373 0.0009556722680487
0.0000110091633464 0.0046901853575356 0.0009286335904549
0.0000074029875640 0.0046566312055095 0.0009073607055535
0.0000033725233194 0.0046272779749952 0.0008851949405052
-0.0000052055221226 0.0045984249767745 0.0008632801853968
-0.0000084318289350 0.0045673090690039 0.0008488502097361
-0.0000107788779451 0.0045370552616573 0.0008350697096172
-0.0000124294537052 0.0045076942670681 0.0008224732104421
-0.0000123638378333 0.0044793390449154 0.0008100373467264
-0.0000136068310099 0.0044518200689108 0.0008021479774352
-0.0000146729724791 0.0044221484654203 0.0007962365531741
-0.0000100180571506 0.0043930730576050 0.0007909679616755
-0.0000107991535544 0.0043671742249736 0.0007873269873276
-0.0000085195987202 0.0043396781407773 0.0007868215889019
-0.0000088128326335 0.0043136688016018 0.0007855129316485
-0.0000089270017655 0.0042869017385560 0.0007866041093132
0.0005117819982164 0.0049999999822073 0.0013236215475113
0.0005098541440618 0.0049999999822073 0.0012591356363867
0.0005062005358126 0.0049999999822073 0.0011936303839906
0.0005010338661525 0.0049999999822073 0.0011317124253390
0.0004950690852151 0.0049999999822073 0.0010639359210858
0.0004885883533023 0.0049999999822073 0.0009970331625594
0.0004819172259458 0.0049999999822073 0.0009294091603172
0.0004739783106837 0.0049999999822073 0.0008722894977073
0.0004602882168382 0.0049999999822073 0.0007984551214551
0.0004499538331749 0.0049999999822073 0.0007440127685168
0.0004306175602457 0.0049999999822073 0.0006756345840791
0.0004129682421735 0.0049999999822073 0.0006227350696570
0.0003872616430683 0.0049999999822073 0.0005594117317227
0.0003642250830830 0.0049999999822073 0.0005117294089018
0.0003334744048267 0.0049999999822073 0.0004601695164320
0.0003042709643964 0.0049999999822073 0.0004171378713840
0.0002675838318066 0.0049999999822073 0.0003778564473765
0.0002279368221778 0.0049999999822073 0.0003418149493361
0.0001914641867428 0.0049999999822073 0.0003023454696847
0.0001651696704713 0.0049999999822073 0.0002921523307144
0.0000885145407340 0.0050000001086824 0.0002930084836955
0.0000391899574766 0.0050000001086824 0.0002344823350306
0.0000120112557059 0.0050000001086824 0.0002286940189886
-0.0000228033725017 0.0050000001086824 0.0002216744447664
-0.0000916403800655 0.0049999999822073 0.0002475171600493
-0.0001497623363787 0.0049999999822073 0.0002074393620536
-0.0001789321877258 0.0049999999822073 0.0002163772070969
-0.0002449117876709 0.0049999999822073 0.0002236267910422
-0.0002888175208490 0.0049999999822073 0.0001886989487701
-0.0003163032123091 0.0049999999822073 0.0002362210920706
-0.0004089285916788 0.0049999999822073 0.0002206803358450
-0.0004494224413636 0.0049999999822073 0.0002295029708100
-0.0004995076957327 0.0049999999822073 0.0002314484840017
-0.0005509385275830 0.0049999999822073 0.0002394944441797
-0.0006082709243209 0.0049999999822073 0.0002350276041206
-0.0006450715455453 0.0049999999822073 0.0002343863148739
-0.0006868571900307 0.0049999999822073 0.0002452033326812
-0.0007327395894978 0.0049999999822073 0.0002357769490081
-0.0007561284346278 0.0049999999822073 0.0002309018812957
-0.0007820733893576 0.0049999999822073 0.0002329603201030
-0.0008076858893517 0.0049999999822073 0.0002248973533625
-0.0008231731180597 0.0049999999822073 0.0002211899673222
-0.0008395427491519 0.0049999999822073 0.0002229677366943
-0.0008526375080050 0.0049999999822073 0.0002090421390754
-0.0008559724030915 0.0049999999822073 0.0002020259513101
-0.0008587952949361 0.0049999999822073 0.0001932931761939
-0.0008616314876493 0.0049999999822073 0.0001874646285615
-0.0008622995056818 0.0049999999822073 0.0001782078287694
-0.0008609491183741 0.0049999999822073 0.0001689792981721
-0.0008548745858881 0.0050177032332784 0.0001591090431630
-0.0008441707934572 0.0050423889997731 0.0001608615517016
-0.0008265886091374 0.0050516289441180 0.0001631022491202
-0.0008066837257758 0.0050654263622502 0.0001606125001832
-0.0007833616341581 0.0050841999525135 0.0001564803181835
-0.0007467714034244 0.0051131327492224 0.0001603711152025
-0.0007024962943475 0.0051207621985719 0.0001656452106707
-0.0006569262666564 0.0051334915825332 0.0001659407455685
-0.0006044126726060 0.0051441088097443 0.0001719915897643
-0.0005499644864646 0.0051503754204346 0.0001778752134082
-0.0004975072924459 0.0051537999503806 0.0001829445278844
-0.0004449898362208 0.0051044725168547 0.0001898825982339
-0.0004447182415904 0.0050600550422292 0.0001920997670873
-0.0004426259618157 0.0050209459231317 0.0001927045621281
-0.0004365844639887 0.0049849328164309 0.0001920741843720
-0.0004327414387548 0.0049509005476467 0.0001932029987735
-0.0004249522852049 0.0049195617276045 0.0001918542154467
-0.0004129235357429 0.0048871218398729 0.0001930722830642
-0.0004102883372319 0.0048530646543080 0.0001941619811620
-0.0003982314641281 0.0048253142414779 0.0001903972504278
-0.0003800637229785 0.0047954013989869 0.0001909148852727
-0.0003747412148311 0.0047570751886774 0.0001939989510986
-0.0003686510089291 0.0047232598208190 0.0001944012210557
-0.0003611351978156 0.0046911038185077 0.0001948610686215
-0.0003568220291882 0.0046593545532109 0.0001958297591394
-0.0003406928416422 0.0046296910085618 0.0001962794515102
-0.0003375220582882 0.0045928793830007 0.0002000047329172
-0.0003335142133502 0.0045584883739005 0.0002021901539531
-0.0003304615563385 0.0045259404633651 0.0002058645276348
-0.0003234698353649 0.0044936455642699 0.0002101624660150
-0.0003193122289997 0.0044588386427840 0.0002150396531971
-0.0003212631067886 0.0044229621732513 0.0002226170823817
-0.0003185102571700 0.0043912133371948 0.0002296221009564
-0.0003159585446550 0.0043561418908338 0.0002382304866344
-0.0003151568342442 0.0043220614376571 0.0002473535811362
-0.0003105683246244 0.0042874307293095 0.0002564154799413
-0.0003253465733134 0.0042478806277763 0.0002704563961681
-0.0003209038015887 0.0042206614754358 0.0002809176564970
-0.0000038559167812 0.0042336260775265 0.0007919301878090
0.0000013362467862 0.0042004892126647 0.0008059570995154
0.0000028564755013 0.0041682151850405 0.0008135415627064
-0.0000011130597896 0.0041381632623166 0.0008202643013250
-0.0000094071694653 0.0041065125867673 0.0008279366025954
-0.0000135247634847 0.0040659298353939 0.0008496810600540
-0.0000132646563498 0.0040192142814054 0.0008719444279282
-0.0000190189754479 0.0039874079271417 0.0008816555413913
-0.0000295394714149 0.0039510935447681 0.0008950702822849
-0.0000409040440626 0.0039071794265229 0.0009125486302276
-0.0000543931517362 0.0038726968460916 0.0009313466652800
-0.0000646674125010 0.0038238713395845 0.0009674732216314
-0.0000737274671600 0.0037730608674788 0.0009929746045952
-0.0000837656113308 0.0037350651363175 0.0010115619947874
-0.0001005936675160 0.0037047429748884 0.0010330705543527
-0.0001092804269242 0.0036374702683678 0.0010724583413204
-0.0001128567435883 0.0035789069546254 0.0011033601623336
-0.0001218099541136 0.0035385411929595 0.0011193010401559
-0.0001282662369428 0.0034910850566545 0.0011513071104841
-0.0001361330155185 0.0034204871917758 0.0011668063294994
-0.0001380947734554 0.0033865979636571 0.0011831434837562
-0.0001483121946181 0.0033264823530613 0.0011964117347411
-0.0001457682399306 0.0032677630048016 0.0012106921045992
-0.0001617353405029 0.0031867772389919 0.0012398126574235
-0.0001727331950191 0.0030647497990451 0.0012169997284095
-0.0001636358374448 0.0030394406416490 0.0012244443221722
-0.0001601119492519 0.0029759301578905 0.0012395651875322
-0.0001702094091248 0.0029263908938861 0.0012309483845306
-0.0001817165178065 0.0028848890058811 0.0012286868597340
-0.0002071665570173 0.0027664144510682 0.0011700371539969
-0.0001962327284523 0.0027354105613858 0.0011624081778354
-0.0001947911109267 0.0026973821154739 0.0011708347069131
-0.0002120091916757 0.0026381380068515 0.0011428195395644
-0.0002140563049917 0.0026051100168505 0.0011218847597784
-0.0002312451397013 0.0025225751752813 0.0010687224139258
-0.0002430784072902 0.0024622593180606 0.0010263756735839
-0.0002294021509778 0.0024253043976563 0.0010023592323897
-0.0002158982160721 0.0024080013044169 0.0009936050230014
-0.0002592240433229 0.0023201156280704 0.0009422993872247
-0.0002701657865268 0.0022607482692618 0.0009034470491615
-0.0002560969730096 0.0022178660227458 0.0008839953042856
-0.0002491668217604 0.0021816107173107 0.0008674825353582
-0.0002529365350593 0.0021383161874034 0.0008525771092947
-0.0002550528119128 0.0020926431449430 0.0008405311559398
-0.0002676823305082 0.0020428917200267 0.0008247568153344
-0.0002588831574130 0.0020047802624163 0.0008142479613940
-0.0003216281765546 0.0041506860778898 0.0003076197832244
-0.0003215230345315 0.0041140787232226 0.0003226953961976
-0.0003150580910663 0.0040773505075457 0.0003378584914352
-0.0003049895564058 0.0040381040239481 0.0003543023704767
-0.0003140776879020 0.0039814236454655 0.0003783205062342
-0.0002923176276171 0.0039522050584293 0.0003899989293597
-0.0003136080917513 0.0038771122173647 0.0004296529726974
-0.0002897162966722 0.0038489537210370 0.0004417950120956
-0.0002608655506311 0.0038154813749094 0.0004620739504380
-0.0002694960655693 0.0037435725482419 0.0005100923892168
-0.0002673066764236 0.0036775165817932 0.0005340911230198
-0.0002423892903257 0.0036605847786906 0.0005437486957464
-0.0002423218388148 0.0035637312441212 0.0006030152768104
-0.0002348783316596 0.0035291451485515 0.0006254402823980
-0.0002235154166283 0.0034893469432778 0.0006519790079996
-0.0002093536066688 0.0034341698709307 0.0006765440182082
-0.0001937012880381 0.0033954271179322 0.0007004312142690
-0.0001920772577925 0.0032954605444044 0.0007507548589836
-0.0001803598414197 0.0032588950661792 0.0007632030376842
-0.0001690704943582 0.0032103546029718 0.0007830836850675
-0.0001583205336068 0.0031634044864309 0.0008016147633787