# vtk DataFile Version 2.0
VTK from MATLAB
ASCII
DATASET UNSTRUCTURED_GRID
POINTS 20895 double
0.0000000000000000 0.0000000000000000 0.0000000000000000
0.0955900316715531 11.1117639763240064 0.0785038226855009
10.6117316927706415 11.7946376277159395 0.1414476691777997
10.8996787760180069 17.8913992881915149 0.2745024925559644
0.5164856691283162 19.2626899364183828 0.6024179002589379
1.1076869265800511 30.0000000512177536 0.6550240658322986
50.0000000000000000 0.0000000000000000 0.0000000000000000
49.8607175687498483 11.0289397251016261 0.0187497193593616
39.4626636712237655 11.8345881361629051 -0.0750456877207124
39.1390537638614333 17.7517015271106153 -0.1391591143551826
49.3462720247138975 19.4153929833739802 -0.8063553995453173
48.5153029483506231 30.0000000512177536 -0.5266820911882333
12.4438478941360362 14.5985662384449881 0.9591401476242560
37.8706566533251561 14.8713943180633965 0.4554091394009710
1.3156329223209506 30.0000000512177536 4.7634157249607680
48.8528825330737746 30.0000000512177536 3.7036712679236099
49.6102087510979217 19.2296708331800232 3.2785398611726020
39.4391972148167440 17.4873341839954541 3.7427845805550479
37.8961843506500742 14.6315648249965449 3.5483715834565221
39.4692865210169685 11.9802123662488516 3.8196527067972998
49.8184207469158480 11.0314926142695242 4.1196288251756847
50.0000000000000000 0.0000000000000000 4.0999999999999996
0.0000000000000000 0.0000000000000000 4.0999999999999996
0.1147539873521838 11.0817451706022521 4.1782845664058472
10.6048610283691147 11.7977677077756375 4.0352474362342869
12.2794552002457102 14.5905967149719089 3.5176163961977966
10.8549790290224326 17.5527913799784656 4.0386473945244896
0.6786720887681092 19.2194167925108843 4.7017500860390617
0.9999999999960776 0.0000000000000000 0.0000000000000000
1.9999999999920259 0.0000000000000000 0.0000000000000000
2.9999999999877831 0.0000000000000000 0.0000000000000000
3.9999999999841989 0.0000000000000000 0.0000000000000000
4.9999999999807869 0.0000000000000000 0.0000000000000000
5.9999999999773106 0.0000000000000000 0.0000000000000000
6.9999999999726299 0.0000000000000000 0.0000000000000000
7.9999999999674403 0.0000000000000000 0.0000000000000000
8.9999999999622489 0.0000000000000000 0.0000000000000000
9.9999999999570601 0.0000000000000000 0.0000000000000000
10.9999999999518696 0.0000000000000000 0.0000000000000000
11.9999999999466809 0.0000000000000000 0.0000000000000000
12.9999999999414904 0.0000000000000000 0.0000000000000000
13.9999999999362892 0.0000000000000000 0.0000000000000000
14.9999999999311004 0.0000000000000000 0.0000000000000000
15.9999999999265796 0.0000000000000000 0.0000000000000000
16.9999999999249098 0.0000000000000000 0.0000000000000000
17.9999999999232685 0.0000000000000000 0.0000000000000000
18.9999999999216307 0.0000000000000000 0.0000000000000000
19.9999999999199893 0.0000000000000000 0.0000000000000000
20.9999999999183586 0.0000000000000000 0.0000000000000000
21.9999999999167102 0.0000000000000000 0.0000000000000000
22.9999999999150795 0.0000000000000000 0.0000000000000000
23.9999999999134310 0.0000000000000000 0.0000000000000000
24.9999999999118003 0.0000000000000000 0.0000000000000000
25.9999999999101590 0.0000000000000000 0.0000000000000000
26.9999999999085212 0.0000000000000000 0.0000000000000000
27.9999999999068798 0.0000000000000000 0.0000000000000000
28.9999999999052314 0.0000000000000000 0.0000000000000000
29.9999999999036007 0.0000000000000000 0.0000000000000000
30.9999999999019593 0.0000000000000000 0.0000000000000000
31.9999999999016005 0.0000000000000000 0.0000000000000000
32.9999999999069615 0.0000000000000000 0.0000000000000000
33.9999999999124327 0.0000000000000000 0.0000000000000000
34.9999999999179110 0.0000000000000000 0.0000000000000000
35.9999999999233822 0.0000000000000000 0.0000000000000000
36.9999999999288534 0.0000000000000000 0.0000000000000000
37.9999999999343174 0.0000000000000000 0.0000000000000000
38.9999999999398028 0.0000000000000000 0.0000000000000000
39.9999999999452669 0.0000000000000000 0.0000000000000000
40.9999999999507523 0.0000000000000000 0.0000000000000000
41.9999999999562235 0.0000000000000000 0.0000000000000000
42.9999999999616875 0.0000000000000000 0.0000000000000000
43.9999999999671587 0.0000000000000000 0.0000000000000000
44.9999999999726370 0.0000000000000000 0.0000000000000000
45.9999999999781011 0.0000000000000000 0.0000000000000000
46.9999999999835794 0.0000000000000000 0.0000000000000000
47.9999999999890434 0.0000000000000000 0.0000000000000000
48.9999999999945288 0.0000000000000000 0.0000000000000000
49.9571564306640781 0.9530184014843764 0.0179283748421159
49.9267291371989543 1.8812958103160624 0.0177333128707930
49.8881094510346657 2.8159386712943912 0.0190356012436708
49.8564807945213886 3.7448027138660294 0.0149773551647597
49.8292373641771462 4.6582213791170588 0.0145375994497225
49.8111677005923141 5.5669676678275550 0.0126249797521514
49.8019381311829719 6.4722827789791548 0.0137118183475146
49.8057179501215472 7.3745518051083030 0.0169316470451090
49.8165044187019816 8.2860424902132852 0.0181749206556893
49.8301022120998169 9.1990834399300052 0.0183568727346881
49.8448939037511707 10.1144556030217192 0.0181869421344519
48.9397468088914280 11.0430702231465574 0.0078446277810855
48.0950477236844947 11.0523876827809922 -0.0026203914526427
47.3169783105575732 11.0630802900517988 -0.0113221503614331
46.6036585809198272 11.0703003234165980 -0.0236203360933671
45.9624870557825247 11.0818034477380287 -0.0345804983685934
45.3588610284852507 11.1013274004765012 -0.0426214549007695
44.8060349107861740 11.1183448985328752 -0.0534387330648899
44.3010100173151997 11.1364044878225794 -0.0660727092860408
43.8476176222127805 11.1575429314461108 -0.0770848947159649
43.4123311425374609 11.1831000912344525 -0.0859763434760982
43.0298948517470450 11.2068453723587353 -0.0976276714154694
42.6612131589469428 11.2393047957679926 -0.1058585516456009
42.3238630197710535 11.2671251840407542 -0.1160497387088105
42.0205310070602209 11.2957553343204697 -0.1258523681070881
41.7312839429610705 11.3307552170193926 -0.1319054864831047
41.4657934849516607 11.3647704096209079 -0.1377193392177913
41.2182338750865682 11.3995059338896958 -0.1436343219622561
40.9908261682179429 11.4357499103581546 -0.1451833156566870
40.7814263869929334 11.4735519193629507 -0.1461772968836942
40.5819902357916007 11.5124599858700520 -0.1442887298770570
40.4029282278952877 11.5500215641557809 -0.1433615991289535
40.2363493373453451 11.5903909443297657 -0.1380084793876158
40.0794075306598998 11.6301719922636515 -0.1320910419363171
39.9394985119131434 11.6687839406377911 -0.1255495345352934
39.8052261162321912 11.7091260347578849 -0.1152235079217870
39.6880761277169540 11.7460618694144348 -0.1078696820807257
39.5829776229920327 11.7879181063588696 -0.0981793712398334
0.0466874650479064 1.0605941259894578 0.1405536188083220
0.0950172945822270 1.9949432339885698 0.0807368777687287
0.1337273395476623 2.9001498210860923 0.0487529602732563
0.1637854426012689 3.8185671595478681 0.0339796268099029
0.1872660787502811 4.7327404131226070 0.0215201422184920
0.1971536234924443 5.6428150092878591 0.0208913991657344
0.1967381829845093 6.5521803620803061 0.0230591587002478
0.1882264140951690 7.4572367325457698 0.0233553707376582
0.1693113983562454 8.3673139705811401 0.0365794711576013
0.1440428291868586 9.2821028023116803 0.0549525326194993
0.1184043480722090 10.1961463040764979 0.0683256727531747
1.0163213783726466 11.1340195717291905 0.0751069757794434
1.8648531326177757 11.1541040615404725 0.0730532055854571
2.6439883990466209 11.1718600180617766 0.0697560758968495
3.3597327347376140 11.1900719681092067 0.0665140676473801
4.0158352802453283 11.2095829338672015 0.0659879948245856
4.6254997968133846 11.2292243511534853 0.0643222092631788
5.1802078276680703 11.2462941745248184 0.0597071530156703
5.6910099307232516 11.2671709661120723 0.0592418713634457
6.1670796537756623 11.2887899195453301 0.0580004299244704
6.5998983080247653 11.3072479385059737 0.0536808536283292
6.9985756835961768 11.3288473491597266 0.0526988695809232
7.3696218127565851 11.3533342874121406 0.0519061725360943
7.7117818979113295 11.3767744432019597 0.0515175783317283
8.0259910299824853 11.4015952660714781 0.0514027338588371
8.3171633874851452 11.4273550185418795 0.0524459942180568
8.5862390036148870 11.4532455722063382 0.0534500067241178
8.8344649971630602 11.4789337171175347 0.0559743430044104
9.0610993758194684 11.5067141979999548 0.0587616622584287
9.2715337062992003 11.5364511383250044 0.0633002359210225
9.4746375787233443 11.5656868069555507 0.0692596786863999
9.6485283273481137 11.5935815947142657 0.0743206516404977
9.8331458156456648 11.6285233230698708 0.0841298588129321
9.9846430173209963 11.6512870581016301 0.0906849222769119
10.1260083742104960 11.6805325332423493 0.0992186511946324
10.2587604907051837 11.7085227376576420 0.1080725427417884
10.3752453484133511 11.7367315093769182 0.1174077391919548
10.5098784584913130 11.7741054539712255 0.1326574228926795
1.1088291263353220 29.1004207732571913 0.6547226964546926
1.1041279573929170 28.1917513880159447 0.6502911502651461
1.0811480759217380 27.3199315149326267 0.6549920840845677
1.0530188123701978 26.4066543150113304 0.6473683521190196
1.0245420079075747 25.5480025112474607 0.6396586385603273
0.9759479459854553 24.6482876898659242 0.6290347954071642
0.9236568639239563 23.7728732629570949 0.6165153818697220
0.8493713573465087 22.8912259332636197 0.6237740546228417
0.7703084924154148 21.9855402677033176 0.6172503639042465
0.6860212894182955 21.0867477370777010 0.6127513907797759
0.6007911251149427 20.1744400757150686 0.6072354019954762
1.4331658497951920 19.1798558441607767 0.5648482866029676
2.2761193505891875 19.1087149118191633 0.5284251979047891
3.0504993230863975 19.0445622975362809 0.4939432437829062
3.7547003996164565 18.9907827006375989 0.4583130587830359
4.4082505117375677 18.9299755776849032 0.4307950600824096
[...]
POINT_DATA 20895
VECTORS myfield1 double
0.0000000000000000 0.0000000000000000 0.0000000000000000
0.0000955900316716 0.0001117639763240 0.0000785038226855
0.0001117316927706 0.0007946376277159 0.0001414476691778
0.0003996787760180 0.0038913992881915 0.0002745024925560
0.0005164856691283 0.0052626899364184 0.0006024179002589
0.0011076869265801 0.0050000000512178 0.0006550240658323
0.0000000000000000 0.0000000000000000 0.0000000000000000
-0.0001392824312502 0.0000289397251016 0.0000187497193594
-0.0000373363287762 0.0008345881361629 -0.0000750456877207
-0.0003609462361386 0.0037517015271106 -0.0001391591143552
-0.0006537279752861 0.0054153929833740 -0.0008063553995453
-0.0014846970516494 0.0050000000512178 -0.0005266820911882
0.0004438478941360 0.0020985662384450 0.0009591401476243
-0.0001293433466748 0.0023713943180634 0.0004554091394010
0.0013156329223210 0.0050000000512178 0.0006634157249608
-0.0011471174669262 0.0050000000512178 -0.0003963287320764
-0.0003897912489021 0.0052296708331800 -0.0008214601388274
-0.0000608027851833 0.0034873341839955 -0.0003572154194450
-0.0001038156493499 0.0021315648249965 -0.0005516284165435
-0.0000307134789830 0.0009802123662489 -0.0002803472932027
-0.0001815792530842 0.0000314926142695 0.0000196288251757
0.0000000000000000 0.0000000000000000 0.0000000000000000
0.0000000000000000 0.0000000000000000 0.0000000000000000
0.0001147539873522 0.0000817451706023 0.0000782845664058
0.0001048610283691 0.0007977677077756 -0.0000647525637657
0.0002794552002457 0.0020905967149719 -0.0005823836038022
0.0003549790290224 0.0035527913799785 -0.0000613526054755
0.0006786720887681 0.0052194167925109 0.0006017500860391
0.0000000000000000 0.0000000000000000 0.0000000000000000
0.0000000000000000 0.0000000000000000 0.0000000000000000
0.0000000000000000 0.0000000000000000 0.0000000000000000
0.0000000000000000 0.0000000000000000 0.0000000000000000
0.0000000000000000 0.0000000000000000 0.0000000000000000
0.0000000000000000 0.0000000000000000 0.0000000000000000
0.0000000000000000 0.0000000000000000 0.0000000000000000
0.0000000000000000 0.0000000000000000 0.0000000000000000
0.0000000000000000 0.0000000000000000 0.0000000000000000
0.0000000000000000 0.0000000000000000 0.0000000000000000
0.0000000000000000 0.0000000000000000 0.0000000000000000
0.0000000000000000 0.0000000000000000 0.0000000000000000
0.0000000000000000 0.0000000000000000 0.0000000000000000
0.0000000000000000 0.0000000000000000 0.0000000000000000
0.0000000000000000 0.0000000000000000 0.0000000000000000
0.0000000000000000 0.0000000000000000 0.0000000000000000
0.0000000000000000 0.0000000000000000 0.0000000000000000
0.0000000000000000 0.0000000000000000 0.0000000000000000
0.0000000000000000 0.0000000000000000 0.0000000000000000
0.0000000000000000 0.0000000000000000 0.0000000000000000
0.0000000000000000 0.0000000000000000 0.0000000000000000
0.0000000000000000 0.0000000000000000 0.0000000000000000
0.0000000000000000 0.0000000000000000 0.0000000000000000
0.0000000000000000 0.0000000000000000 0.0000000000000000
0.0000000000000000 0.0000000000000000 0.0000000000000000
0.0000000000000000 0.0000000000000000 0.0000000000000000
0.0000000000000000 0.0000000000000000 0.0000000000000000
0.0000000000000000 0.0000000000000000 0.0000000000000000
0.0000000000000000 0.0000000000000000 0.0000000000000000
0.0000000000000000 0.0000000000000000 0.0000000000000000
0.0000000000000000 0.0000000000000000 0.0000000000000000
0.0000000000000000 0.0000000000000000 0.0000000000000000
0.0000000000000000 0.0000000000000000 0.0000000000000000
0.0000000000000000 0.0000000000000000 0.0000000000000000
0.0000000000000000 0.0000000000000000 0.0000000000000000
0.0000000000000000 0.0000000000000000 0.0000000000000000
0.0000000000000000 0.0000000000000000 0.0000000000000000
0.0000000000000000 0.0000000000000000 0.0000000000000000
0.0000000000000000 0.0000000000000000 0.0000000000000000
0.0000000000000000 0.0000000000000000 0.0000000000000000
0.0000000000000000 0.0000000000000000 0.0000000000000000
0.0000000000000000 0.0000000000000000 0.0000000000000000
0.0000000000000000 0.0000000000000000 0.0000000000000000
0.0000000000000000 0.0000000000000000 0.0000000000000000
0.0000000000000000 0.0000000000000000 0.0000000000000000
0.0000000000000000 0.0000000000000000 0.0000000000000000
0.0000000000000000 0.0000000000000000 0.0000000000000000
0.0000000000000000 0.0000000000000000 0.0000000000000000
0.0000000000000000 0.0000000000000000 0.0000000000000000
-0.0000428435693359 0.0000363517348195 0.0000179283748421
-0.0000732708628010 0.0000479624769867 0.0000177333128708
-0.0001118905489653 0.0000659386713021 0.0000190356012437
-0.0001435192054786 0.0000781360472111 0.0000149773551648
-0.0001707626358229 0.0000748880457996 0.0000145375994497
-0.0001888322994077 0.0000669676678473 0.0000126249797522
-0.0001980618688170 0.0000556161123291 0.0000137118183475
-0.0001942820498785 0.0000412184717883 0.0000169316470451
-0.0001834955812980 0.0000360424902232 0.0000181749206557
-0.0001698977879002 0.0000324167732700 0.0000183568727347
-0.0001551060962488 0.0000311222696917 0.0000181869421345
-0.0001392319536839 0.0000430702231466 0.0000078446277811
-0.0001356194661724 0.0000523876827810 -0.0000026203914526
-0.0001323469504964 0.0000630802900518 -0.0000113221503614
-0.0001260076646851 0.0000703003234166 -0.0000236203360934
-0.0001043333780766 0.0000818034477380 -0.0000345804983686
-0.0000974417554944 0.0001013274004765 -0.0000426214549008
-0.0000879472800065 0.0001183448985329 -0.0000534387330649
-0.0000750438345754 0.0001364044878226 -0.0000660727092860
-0.0000513955336053 0.0001575429314461 -0.0000770848947160
-0.0000473012075563 0.0001831000912345 -0.0000859763434761
-0.0000250434633278 0.0002068453723587 -0.0000976276714155
-0.0000209795480465 0.0002393047957680 -0.0001058585516456
-0.0000150103542454 0.0002671251840408 -0.0001160497387088
-0.0000021262878802 0.0002957553343205 -0.0001258523681071
-0.0000001208363329 0.0003307552170194 -0.0001319054864831
0.0000026483290057 0.0003647704096209 -0.0001377193392178
0.0000021707584861 0.0003995059338897 -0.0001436343219623
0.0000023392352623 0.0004357499103582 -0.0001451833156567
0.0000025497088196 0.0004735519193629 -0.0001461772968837
-0.0000038237984064 0.0005124599858701 -0.0001442887298771
-0.0000050644304928 0.0005500215641558 -0.0001433615991290
-0.0000078600061649 0.0005903909443298 -0.0001380084793876
-0.0000139483091946 0.0006301719922637 -0.0001320910419363
-0.0000149129049815 0.0006687839406378 -0.0001255495345353
-0.0000212098335621 0.0007091260347579 -0.0001152235079218
-0.0000204872849648 0.0007460618694144 -0.0001078696820807
-0.0000170186859763 0.0007879181063589 -0.0000981793712398
0.0000466874650479 0.0001439274593246 0.0001405536188083
0.0000950172945822 0.0001616099006592 0.0000807368777687
0.0001337273395477 0.0001501498210938 0.0000487529602733
0.0001637854426013 0.0001519004928930 0.0000339796268099
0.0001872660787503 0.0001494070798051 0.0000215201422185
0.0001971536234924 0.0001428150093076 0.0000208913991657
0.0001967381829845 0.0001355136954302 0.0000230591587002
0.0001882264140952 0.0001239033992257 0.0000233553707377
0.0001693113983562 0.0001173139705911 0.0000365794711576
0.0001440428291869 0.0001154361356517 0.0000549525326195
0.0001184043480722 0.0001128129707465 0.0000683256727532
0.0000953001409501 0.0001340195717292 0.0000751069757794
0.0000955203224789 0.0001541040615405 0.0000730532055855
0.0000933136601066 0.0001718600180618 0.0000697560758968
0.0000893989803500 0.0001900719681092 0.0000665140676474
0.0000826557141131 0.0002095829338672 0.0000659879948246
0.0000818025808049 0.0002292243511535 0.0000643222092632
0.0000741900184755 0.0002462941745248 0.0000597071530157
0.0000670637826279 0.0002671709661121 0.0000592418713634
0.0000660928096060 0.0002887899195453 0.0000580004299245
0.0000595306581292 0.0003072479385060 0.0000536808536283
0.0000535139986803 0.0003288473491597 0.0000526988695809
0.0000518145197581 0.0003533342874121 0.0000519061725361
0.0000506552719347 0.0003767744432020 0.0000515175783317
0.0000486483249288 0.0004015952660715 0.0000514027338588
0.0000485681667842 0.0004273550185419 0.0000524459942181
0.0000493841595652 0.0004532455722063 0.0000534500067241
0.0000505281137672 0.0004789337171175 0.0000559743430044
0.0000495863087782 0.0005067141980000 0.0000587616622584
0.0000504103844751 0.0005364511383250 0.0000633002359210
0.0000604516129234 0.0005656868069556 0.0000692596786864
0.0000565209857378 0.0005935815947143 0.0000743206516405
0.0000773551591573 0.0006285233230699 0.0000841298588129
0.0000779988571765 0.0006512870581016 0.0000906849222769
0.0000804197911059 0.0006805325332423 0.0000992186511946
0.0000851964405000 0.0007085227376576 0.0001080725427418
0.0000838087610954 0.0007367315093769 0.0001174077391920
0.0001098747674598 0.0007741054539712 0.0001326574228927
0.0011088291263353 0.0050170874399239 0.0006547226964547
0.0011041279573929 0.0050250847213493 0.0006502911502651
0.0010811480759217 0.0050699315149326 0.0006549920840846
0.0010530188123702 0.0050733209816780 0.0006473683521190
0.0010245420079076 0.0051313358445808 0.0006396586385603
0.0009759479459855 0.0051482876898659 0.0006290347954072
0.0009236568639240 0.0051895399296238 0.0006165153818697
0.0008493713573465 0.0052245592665970 0.0006237740546228
0.0007703084924154 0.0052355402677033 0.0006172503639042
0.0006860212894183 0.0052534144037444 0.0006127513907798
0.0006007911251149 0.0052577734090484 0.0006072354019955
0.0005121446123726 0.0051798558441608 0.0005648482866030
0.0005067865404503 0.0051087149118192 0.0005284251979048
0.0004998245841464 0.0050445622975363 0.0004939432437829
0.0004843666452289 0.0049907827006376 0.0004583130587830
0.0004750709456054 0.0049299755776849 0.0004307950600824
0.0004652853131840 0.0048745281152826 0.0004035491256565
0.0004541754300064 0.0048237824104082 0.0003742412036978
0.0004366739011331 0.0047755972248529 0.0003462793501167
0.0004313436906426 0.0047197269011656 0.0003273910382287
0.0004166794910579 0.0046736463061310 0.0003013833126485
0.0004108051331645 0.0046187868983442 0.0002859929225221
0.0004054220997277 0.0045685850753323 0.0002693831254902
0.0003977873647081 0.0045216641794989 0.0002515517271490
0.0003932273478170 0.0044717455479203 0.0002427467689855
0.0003894554068754 0.0044228784974816 0.0002332516601412
0.0003893499149557 0.0043764858848385 0.0002205818237531
0.0003866356494844 0.0043320461642210 0.0002173471927507
0.0003834624204556 0.0042876358502390 0.0002139768838364
0.0003824661485991 0.0042415878306791 0.0002129163059218
0.0003896304815982 0.0041982767984310 0.0002108209454375
0.0003875321537214 0.0041610196197336 0.0002116546510761
0.0003853487903794 0.0041172053939545 0.0002163820447624
0.0003944445075873 0.0040744646317500 0.0002227816250458
0.0003929870682059 0.0040406967146768 0.0002265905917136
0.0003952629175418 0.0040022892414082 0.0002367729446607
0.0003937581496532 0.0039679342647936 0.0002422946335232
0.0003918618007127 0.0039319485066556 0.0002510785485580
0.0011117772186040 0.0050000000512178 0.0006076920548530
0.0011177265918292 0.0050000000512178 0.0005624875160160
0.0011213315710792 0.0050000000512178 0.0005187017605239
0.0011228891654695 0.0050000000512178 0.0004765111070823
0.0011176781031430 0.0050000000512178 0.0004333560625264
0.0011108687525226 0.0050000000512178 0.0003927549560682
0.0011020678317525 0.0050000000512178 0.0003586997138858
0.0010858520427070 0.0050000000512178 0.0003382435454235
0.0010688066171712 0.0050000000512178 0.0003115771450414
0.0010566760586180 0.0050000000512178 0.0003034284605019
0.0010373654936060 0.0050000000512178 0.0002839201604694
0.0010230105475405 0.0050000000512178 0.0002871119312832
0.0010013853054893 0.0050000000512178 0.0002813474008877
0.0009806779382713 0.0050000000512178 0.0003091021898199
0.0009456439851154 0.0050000000512178 0.0003377886580713
0.0008988801331832 0.0050000000512178 0.0003584042146093
0.0008191524406138 0.0050000000512178 0.0003668593096588
0.0007318504521574 0.0050000000512178 0.0003597114128586
0.0006374011909183 0.0050000000512178 0.0002864276785991
0.0005568641605477 0.0050000000512178 0.0002652452850448
0.0003923999138573 0.0050000001746056 0.0002217492247851
0.0003288334051295 0.0050000001746056 0.0000403665643231
0.0003048710779915 0.0050000001746056 -0.0000007486762165
0.0002457551590794 0.0050000001746056 -0.0000153129485330
0.0001040425500258 0.0050000000512178 0.0000616369045037
0.0000215467198116 0.0050000000512178 0.0000269846399566
-0.0000297246933156 0.0050000000512178 0.0000848944433806
-0.0001343744084130 0.0050000000512178 0.0001664409509180
-0.0002229668366426 0.0050000000512178 0.0001707532194243
-0.0003005059721496 0.0050000000512178 0.0003262606727628
-0.0004552990338048 0.0050000000512178 0.0003779706049196
-0.0005093821545714 0.0050000000512178 0.0003974129525551
-0.0005563991630714 0.0050000000512178 0.0004710193939010
-0.0006292091325695 0.0050000000512178 0.0005384191195376
-0.0007160976134981 0.0050000000512178 0.0005743120561378
-0.0007847124127891 0.0050000000512178 0.0005944093129170
-0.0008728889580645 0.0050000000512178 0.0006528525574567
-0.0009967795792168 0.0050000000512178 0.0006077046790318
-0.0010813251098031 0.0050000000512178 0.0005480206196747
-0.0011853170599782 0.0050000000512178 0.0004830763741088
-0.0012873403885312 0.0050000000512178 0.0003817628998558
-0.0013506248797405 0.0050000000512178 0.0002864111520469
-0.0014117194847129 0.0050000000512178 0.0002028118344702
-0.0014495061522743 0.0050000000512178 0.0000828069282404
-0.0014568530409878 0.0050000000512178 -0.0000041566287845
-0.0014669288292123 0.0050000000512178 -0.0000970368171233
-0.0014690552270891 0.0050000000512178 -0.0001888674971695
-0.0014742932423107 0.0050000000512178 -0.0002908965719292
-0.0014789048745842 0.0050000000512178 -0.0004100889418145
-0.0014890443524886 0.0050844414493863 -0.0005202182840818
-0.0014521376014353 0.0051498467297928 -0.0004983263729012
-0.0014047303998023 0.0051708856529642 -0.0004985228593943
-0.0013547377565066 0.0051984212361426 -0.0005179712901635
-0.0013002603936379 0.0052341926611039 -0.0005454314378035
-0.0012247396072474 0.0052966126781283 -0.0005658294298718
-0.0011340067156523 0.0053149551168469 -0.0005996487353505
-0.0010449513535314 0.0053476393053359 -0.0006417763478405
-0.0009444807076885 0.0053785741927632 -0.0006784845648206
-0.0008411653268914 0.0053979455017947 -0.0007168367371525
-0.0007457405092842 0.0054089402852377 -0.0007604286305374
-0.0006474105858387 0.0053207473140899 -0.0007532180962996
-0.0006422998047652 0.0052412942364399 -0.0007077169700202
-0.0006343472704962 0.0051768067516339 -0.0006704568099239
-0.0006170626086252 0.0051194883880888 -0.0006405671134847
-0.0006056514417990 0.0050673053170081 -0.0006131877119076
-0.0005859706751120 0.0050184307087782 -0.0005911324622841
-0.0005576119444197 0.0049641318204136 -0.0005644953237049
-0.0005504392117782 0.0048999674854869 -0.0005379010386552
-0.0005263845311010 0.0048475828895624 -0.0005220979945582
-0.0004927207374397 0.0047867786525996 -0.0004967288940392
-0.0004808607671779 0.0047139154246226 -0.0004730454157844
-0.0004674145667268 0.0046464834964250 -0.0004502288480924
-0.0004537028290670 0.0045811694242022 -0.0004285542579514
-0.0004433216705237 0.0045164986245580 -0.0004070112807819
-0.0004206614655381 0.0044549419112975 -0.0003882426982009
-0.0004116958740577 0.0043892220619714 -0.0003673041275680
-0.0004019827150848 0.0043264677175082 -0.0003482021349828
-0.0003938397571734 0.0042666531299362 -0.0003289983258582
-0.0003864289415050 0.0042070824588266 -0.0003089711613192
-0.0003765415028106 0.0041510844703983 -0.0002919525454957
-0.0003800302478608 0.0040899727233756 -0.0002697225491845
-0.0003732522110043 0.0040410053955424 -0.0002522689186102
-0.0003674242904318 0.0039888512411812 -0.0002341722282042
-0.0003629493397306 0.0039393762402541 -0.0002161956894231
-0.0003540338479128 0.0038909601929472 -0.0001999537780249
-0.0003690269323712 0.0038345745566361 -0.0001747041331348
-0.0003625507165444 0.0037973004453854 -0.0001602884106811
0.0003952942066579 0.0038610760988618 0.0002777777820724
0.0003964557856626 0.0038153101084430 0.0003156061547270
0.0003951352240544 0.0037716007472885 0.0003394744306722
0.0003890924746555 0.0037303552240107 0.0003571036362421
0.0003794043580544 0.0036876961646355 0.0003749681570840
0.0003662992065116 0.0036361547846551 0.0004228469039954
0.0003538973350030 0.0035819604603003 0.0004743285017173
0.0003458584648128 0.0035287417817147 0.0004999220652909
0.0003378961450334 0.0034751267854373 0.0005297805590477
0.0003274738436931 0.0034165158357819 0.0005679036889671
0.0003164188168736 0.0033629966290150 0.0006103372142841
0.0003018049227043 0.0033064250276683 0.0006839559247481
0.0002992392909689 0.0032352076202998 0.0007392226393886
0.0003039867226693 0.0031664587374028 0.0007850113163191
0.0003070863581956 0.0031004224160395 0.0008309246991160
0.0003219152985765 0.0030036410342174 0.0008971020195748
0.0003485002397970 0.0028917181779088 0.0009488964828108
0.0003687963340092 0.0027976382660637 0.0009695331516147
0.0003964122762894 0.0026849284989845 0.0010114463045912
0.0004150178825789 0.0025331963564112 0.0010082399896224
0.0004350968563590 0.0024469400959776 0.0010136397681744
0.0004356590846591 0.0023148291234732 0.0010001369479628
0.0004414770940442 0.0021844524765773 0.0009779466538962
0.0004215563892710 0.0020235027036238 0.0009326807943737
0.0003884681643394 0.0018327137010313 0.0008354107225529
0.0003887032430013 0.0017977177130337 0.0008036749172724
0.0003787263611092 0.0017117361984134 0.0007645792546530
0.0003575119538351 0.0016586929147701 0.0007096655173252
0.0003413578094547 0.0016170573452927 0.0006676912731969
0.0002866182656445 0.0014661773310423 0.0005787573336102
0.0002964791661793 0.0014385784114830 0.0005442227321903
0.0002920161587466 0.0014085382542102 0.0005186201557859
0.0002682711658728 0.0013557426048840 0.0004773640816698
0.0002688337326067 0.0013253032858937 0.0004542766634115
0.0002335418180467 0.0012312840924897 0.0004180976820622
0.0002175147297538 0.0011810731226730 0.0003814588888899
0.0002153043158587 0.0011447042671239 0.0003458517655065
0.0002189951498589 0.0011247612757743 0.0003244853387814
0.0001753751177170 0.0010612696284169 0.0002949812745049
0.0001637265204049 0.0010172969134654 0.0002684916470838
0.0001595747645921 0.0009813175110322 0.0002461665961197
0.0001550408658558 0.0009516581789467 0.0002272130626981
0.0001426463652156 0.0009181356012298 0.0002063382541775
0.0001362977630545 0.0008845696283205 0.0001897857988396
0.0001196861811563 0.0008502138360547 0.0001694229507525
0.0001212887857881 0.0008206546582623 0.0001573703921892
-0.0003578078511252 0.0037069411266811 -0.0001206095582381
-0.0003552873060444 0.0036603926681666 -0.0000997080192060
-0.0003480049484850 0.0036147161772299 -0.0000796237677338
-0.0003366618944115 0.0035670872732778 -0.0000583736597254
-0.0003417602623053 0.0035044384129042 -0.0000312227139553
-0.0003202189875050 0.0034665302936721 -0.0000167941298374
-0.0003356978211356 0.0033893449033963 0.0000256002131683
-0.0003150465206369 0.0033492136550291 0.0000400705018010
-0.0002894479581747 0.0033056999476469 0.0000625606412457
-0.0002929563601070 0.0032305400470313 0.0000985421147670
-0.0002886840249678 0.0031599700966868 0.0001209333955728
-0.0002639961072084 0.0031291953828900 0.0001352273640420
-0.0002672893033410 0.0030296801641842 0.0001775423705548
-0.0002533216705693 0.0029879289198296 0.0001948833601916
-0.0002413130067022 0.0029395866642919 0.0002233357951731
-0.0002235458468733 0.0028809692612816 0.0002447340679411
-0.0002041665006148 0.0028362599391254 0.0002688868652593
-0.0001997202806863 0.0027316512619520 0.0003165170869178
-0.0001835397500385 0.0026912788085256 0.0003333269768678
-0.0001685128550169 0.0026390832263504 0.0003615043054647
-0.0001545221446815 0.0025872566681126 0.0003888955647526
-0.0001471286106608 0.0025055358983211 0.0004300813034479