# vtk DataFile Version 2.0
VTK from MATLAB
ASCII
DATASET UNSTRUCTURED_GRID
POINTS 20895 double
0.0000000000000000 0.0000000000000000 0.0000000000000000
0.0001845457576803 0.0111122872148539 0.0000649120907718
0.0105802906197137 0.0120188029855562 0.0001647001238944
0.0109013195892744 0.0178336615988552 0.0001700842077921
0.0005668910335825 0.0191906141272526 -0.0000321705913311
0.0011522233902111 0.0300000001020687 -0.0000705941807054
0.0500000000000000 0.0000000000000000 0.0000000000000000
0.0497636871692250 0.0110625541684228 -0.0000524683660666
0.0392636603463965 0.0121364439285274 0.0000738051473514
0.0390889437941939 0.0177955513613146 0.0000451211264608
0.0493865347152647 0.0192256395959144 -0.0000833082981621
0.0487622359770723 0.0300000001020687 -0.0000794288107140
0.0122369796356319 0.0148736675324170 0.0006288062832836
0.0377866246085938 0.0149711004680817 0.0005265052043563
0.0011188363676242 0.0300000001020687 0.0040523862967161
0.0487583349505284 0.0300000001020687 0.0040543890896689
0.0493911960349669 0.0192162787353138 0.0040160809197568
0.0391151525797549 0.0178103409129360 0.0039390701806284
0.0377464225839370 0.0150322282205791 0.0036314341476007
0.0393189200744036 0.0121864654197509 0.0038867946300467
0.0497494884701419 0.0110965084168837 0.0040495590855482
0.0500000000000000 0.0000000000000000 0.0041000000000000
0.0000000000000000 0.0000000000000000 0.0041000000000000
0.0001721338102664 0.0110735920847009 0.0041656197873352
0.0106024237819843 0.0120133656027153 0.0040897187274718
0.0122784354212551 0.0148231919833966 0.0037226680874805
0.0108643823023578 0.0178854681469631 0.0040516414440952
0.0005403981386177 0.0192103046557181 0.0040664043557100
0.0009999999999961 0.0000000000000000 0.0000000000000000
0.0019999999999920 0.0000000000000000 0.0000000000000000
0.0029999999999878 0.0000000000000000 0.0000000000000000
0.0039999999999842 0.0000000000000000 0.0000000000000000
0.0049999999999808 0.0000000000000000 0.0000000000000000
0.0059999999999773 0.0000000000000000 0.0000000000000000
0.0069999999999726 0.0000000000000000 0.0000000000000000
0.0079999999999674 0.0000000000000000 0.0000000000000000
0.0089999999999622 0.0000000000000000 0.0000000000000000
0.0099999999999571 0.0000000000000000 0.0000000000000000
0.0109999999999519 0.0000000000000000 0.0000000000000000
0.0119999999999467 0.0000000000000000 0.0000000000000000
0.0129999999999415 0.0000000000000000 0.0000000000000000
0.0139999999999363 0.0000000000000000 0.0000000000000000
0.0149999999999311 0.0000000000000000 0.0000000000000000
0.0159999999999266 0.0000000000000000 0.0000000000000000
0.0169999999999249 0.0000000000000000 0.0000000000000000
0.0179999999999233 0.0000000000000000 0.0000000000000000
0.0189999999999216 0.0000000000000000 0.0000000000000000
0.0199999999999200 0.0000000000000000 0.0000000000000000
0.0209999999999184 0.0000000000000000 0.0000000000000000
0.0219999999999167 0.0000000000000000 0.0000000000000000
0.0229999999999151 0.0000000000000000 0.0000000000000000
0.0239999999999134 0.0000000000000000 0.0000000000000000
0.0249999999999118 0.0000000000000000 0.0000000000000000
0.0259999999999102 0.0000000000000000 0.0000000000000000
0.0269999999999085 0.0000000000000000 0.0000000000000000
0.0279999999999069 0.0000000000000000 0.0000000000000000
0.0289999999999052 0.0000000000000000 0.0000000000000000
0.0299999999999036 0.0000000000000000 0.0000000000000000
0.0309999999999020 0.0000000000000000 0.0000000000000000
0.0319999999999016 0.0000000000000000 0.0000000000000000
0.0329999999999070 0.0000000000000000 0.0000000000000000
0.0339999999999124 0.0000000000000000 0.0000000000000000
0.0349999999999179 0.0000000000000000 0.0000000000000000
0.0359999999999234 0.0000000000000000 0.0000000000000000
0.0369999999999289 0.0000000000000000 0.0000000000000000
0.0379999999999343 0.0000000000000000 0.0000000000000000
0.0389999999999398 0.0000000000000000 0.0000000000000000
0.0399999999999453 0.0000000000000000 0.0000000000000000
0.0409999999999508 0.0000000000000000 0.0000000000000000
0.0419999999999562 0.0000000000000000 0.0000000000000000
0.0429999999999617 0.0000000000000000 0.0000000000000000
0.0439999999999672 0.0000000000000000 0.0000000000000000
0.0449999999999726 0.0000000000000000 0.0000000000000000
0.0459999999999781 0.0000000000000000 0.0000000000000000
0.0469999999999836 0.0000000000000000 0.0000000000000000
0.0479999999999890 0.0000000000000000 0.0000000000000000
0.0489999999999945 0.0000000000000000 0.0000000000000000
0.0499462305224240 0.0009897698937210 0.0000633872923553
0.0498807472420618 0.0019391546726830 0.0000529408457704
0.0498127640922069 0.0028758600224137 0.0000409248144577
0.0497439899346648 0.0038109001478642 0.0000100118801962
0.0496933365584557 0.0047192386919703 -0.0000052751791314
0.0496647031232197 0.0056214490108167 -0.0000191095529297
0.0496550722884750 0.0065209778084422 -0.0000258026984492
0.0496643303927327 0.0074172115833187 -0.0000287990452792
0.0496840991705436 0.0083250821804150 -0.0000339931949154
0.0497088967262220 0.0092351859399651 -0.0000402050723564
0.0497357052522494 0.0101488434507134 -0.0000464794699192
0.0488430591016126 0.0110887772959456 -0.0000569798997761
0.0479987931292532 0.0111085042155902 -0.0000620534757244
0.0472209157722676 0.0111294385517103 -0.0000658512090847
0.0465073392987496 0.0111475027443542 -0.0000731577842809
0.0458626771743801 0.0111698015014642 -0.0000788815608362
0.0452573219937406 0.0112013579803263 -0.0000808769749362
0.0447011315610529 0.0112320291393680 -0.0000840536461173
0.0441907242040790 0.0112645654508771 -0.0000878284712712
0.0437262170306097 0.0113008509547554 -0.0000901108435135
0.0432905720540881 0.0113421204841477 -0.0000890734334476
0.0428946572508692 0.0113840130444511 -0.0000895056689035
0.0425246206810043 0.0114278056282954 -0.0000886683809040
0.0421852150838980 0.0114731843884398 -0.0000875017621046
0.0418686207189534 0.0115190843303231 -0.0000854047696365
0.0415791409815619 0.0115634659696612 -0.0000824244963782
0.0413120602599821 0.0116107377938209 -0.0000773724968684
0.0410540388105263 0.0116577443812934 -0.0000712805653961
0.0408248302680006 0.0117012488142927 -0.0000650473827224
0.0406142125774257 0.0117463427416749 -0.0000567995298724
0.0404093247436886 0.0117910532611502 -0.0000454579224763
0.0402278296389243 0.0118333553028800 -0.0000365539141742
0.0400586752507778 0.0118776043856756 -0.0000241160945110
0.0398975113003925 0.0119200179805090 -0.0000098454545897
0.0397555183809317 0.0119620754796774 0.0000030226122752
0.0396171224402109 0.0120035442928110 0.0000202018325900
0.0394977001353707 0.0120433687780128 0.0000333399808794
0.0393900575238391 0.0120874624387954 0.0000510373895277
0.0000644382676082 0.0010191934413080 0.0000494207992640
0.0001311358570935 0.0019686405538185 0.0000332946501775
0.0001814665128005 0.0028869325396716 0.0000180242489850
0.0002218167607688 0.0038142484563295 0.0000108377017951
0.0002567622453270 0.0047326829460648 0.0000042674645780
0.0002746321948520 0.0056418727769667 0.0000046120690573
0.0002745848084794 0.0065532645418522 0.0000142116087201
0.0002672193209580 0.0074620275309021 0.0000224777204582
0.0002506153093439 0.0083705963513783 0.0000325552669098
0.0002296452351849 0.0092826731188994 0.0000425900378414
0.0002064996663746 0.0101964570672132 0.0000541672592480
0.0011053194095586 0.0111330782696817 0.0000677597378132
0.0019529295480214 0.0111493456899092 0.0000696712701088
0.0027297415559604 0.0111641161094857 0.0000703251048452
0.0034408930989958 0.0111815959018927 0.0000700705409343
0.0040874074054968 0.0112044457137595 0.0000753702420963
0.0046985538632784 0.0112287498478698 0.0000769377652833
0.0052422745148338 0.0112489024333325 0.0000724190334217
0.0057431192992173 0.0112797182253620 0.0000773699170649
0.0062201687403187 0.0113117310746713 0.0000781951009822
0.0066430021322181 0.0113381989261811 0.0000731167075903
0.0070298734001248 0.0113729172007400 0.0000757629003072
0.0073983950668994 0.0114131595894129 0.0000767217770898
0.0077351245016406 0.0114504950630550 0.0000771103418860
0.0080450115001225 0.0114900275782061 0.0000782119030271
0.0083324667473809 0.0115293035452995 0.0000799055503580
0.0085908452079134 0.0115688812931564 0.0000813886220813
0.0088355048961346 0.0116099713616350 0.0000849947338320
0.0090591516370037 0.0116507452695606 0.0000880360099585
0.0092663459252517 0.0116915746837093 0.0000925555997784
0.0094625272879130 0.0117314706633285 0.0000977933196027
0.0096353391787460 0.0117698209850491 0.0001027274683128
0.0098128956071819 0.0118128825925377 0.0001113870098083
0.0099633198048778 0.0118450438967938 0.0001175068523154
0.0101030449175068 0.0118816804314447 0.0001252925564698
0.0102336860280577 0.0119165886122434 0.0001335968617608
0.0103496223400869 0.0119506839514229 0.0001421709280784
0.0104788481305825 0.0119923370960862 0.0001560487550930
0.0011489529517248 0.0291014725402561 -0.0000706559071126
0.0011409087602960 0.0281954715909285 -0.0000773766704196
0.0011152682209172 0.0273243833382478 -0.0000702668444759
0.0010828900768179 0.0264136538913797 -0.0000760542859043
0.0010444696096383 0.0255321996323907 -0.0000760995130711
0.0009895805332437 0.0246220150886019 -0.0000732920480020
0.0009314853323313 0.0237298688391065 -0.0000684119383216
0.0008617752757834 0.0228315464629712 -0.0000569635021549
0.0007898856896503 0.0219216590125633 -0.0000509565811114
0.0007134429881419 0.0210183131243097 -0.0000428862533471
0.0006395727437782 0.0201046440285227 -0.0000377209146205
0.0014854089255557 0.0191189006456053 -0.0000269816265561
0.0023302477372917 0.0190561275000408 -0.0000221773097583
0.0031075971982852 0.0189992684143274 -0.0000198822098211
0.0038116172376574 0.0189466241827649 -0.0000142030194391
0.0044681160218643 0.0188920224770675 -0.0000094128007513
0.0050710209226109 0.0188423896498512 -0.0000056424573566
0.0056236700346472 0.0187952133580255 -0.0000038972710588
0.0061197207517095 0.0187469226939260 0.0000004481970210
[...]
POINT_DATA 20895
VECTORS myfield1 double
0.0000000000000000 0.0000000000000000 0.0000000000000000
0.0001845457576803 0.0001122872148539 0.0000649120907718
0.0000802906197137 0.0010188029855562 0.0001647001238944
0.0004013195892744 0.0038336615988552 0.0001700842077921
0.0005668910335825 0.0051906141272526 -0.0000321705913311
0.0011522233902111 0.0050000001020687 -0.0000705941807054
0.0000000000000000 0.0000000000000000 0.0000000000000000
-0.0002363128307750 0.0000625541684228 -0.0000524683660666
-0.0002363396536035 0.0011364439285274 0.0000738051473514
-0.0004110562058061 0.0037955513613146 0.0000451211264608
-0.0006134652847353 0.0052256395959144 -0.0000833082981621
-0.0012377640229277 0.0050000001020687 -0.0000794288107140
0.0002369796356319 0.0023736675324170 0.0006288062832836
-0.0002133753914062 0.0024711004680817 0.0005265052043563
0.0011188363676242 0.0050000001020687 -0.0000476137032839
-0.0012416650494716 0.0050000001020687 -0.0000456109103311
-0.0006088039650331 0.0052162787353138 -0.0000839190802432
-0.0003848474202451 0.0038103409129360 -0.0001609298193716
-0.0002535774160630 0.0025322282205791 -0.0004685658523993
-0.0001810799255964 0.0011864654197509 -0.0002132053699533
-0.0002505115298581 0.0000965084168837 -0.0000504409144518
0.0000000000000000 0.0000000000000000 0.0000000000000000
0.0000000000000000 0.0000000000000000 0.0000000000000000
0.0001721338102664 0.0000735920847009 0.0000656197873352
0.0001024237819843 0.0010133656027153 -0.0000102812725282
0.0002784354212551 0.0023231919833966 -0.0003773319125195
0.0003643823023578 0.0038854681469631 -0.0000483585559048
0.0005403981386177 0.0052103046557181 -0.0000335956442900
0.0000000000000000 0.0000000000000000 0.0000000000000000
0.0000000000000000 0.0000000000000000 0.0000000000000000
0.0000000000000000 0.0000000000000000 0.0000000000000000
0.0000000000000000 0.0000000000000000 0.0000000000000000
0.0000000000000000 0.0000000000000000 0.0000000000000000
0.0000000000000000 0.0000000000000000 0.0000000000000000
0.0000000000000000 0.0000000000000000 0.0000000000000000
0.0000000000000000 0.0000000000000000 0.0000000000000000
0.0000000000000000 0.0000000000000000 0.0000000000000000
0.0000000000000000 0.0000000000000000 0.0000000000000000
0.0000000000000000 0.0000000000000000 0.0000000000000000
0.0000000000000000 0.0000000000000000 0.0000000000000000
0.0000000000000000 0.0000000000000000 0.0000000000000000
0.0000000000000000 0.0000000000000000 0.0000000000000000
0.0000000000000000 0.0000000000000000 0.0000000000000000
0.0000000000000000 0.0000000000000000 0.0000000000000000
0.0000000000000000 0.0000000000000000 0.0000000000000000
0.0000000000000000 0.0000000000000000 0.0000000000000000
0.0000000000000000 0.0000000000000000 0.0000000000000000
0.0000000000000000 0.0000000000000000 0.0000000000000000
0.0000000000000000 0.0000000000000000 0.0000000000000000
0.0000000000000000 0.0000000000000000 0.0000000000000000
0.0000000000000000 0.0000000000000000 0.0000000000000000
0.0000000000000000 0.0000000000000000 0.0000000000000000
0.0000000000000000 0.0000000000000000 0.0000000000000000
0.0000000000000000 0.0000000000000000 0.0000000000000000
0.0000000000000000 0.0000000000000000 0.0000000000000000
0.0000000000000000 0.0000000000000000 0.0000000000000000
0.0000000000000000 0.0000000000000000 0.0000000000000000
0.0000000000000000 0.0000000000000000 0.0000000000000000
0.0000000000000000 0.0000000000000000 0.0000000000000000
0.0000000000000000 0.0000000000000000 0.0000000000000000
0.0000000000000000 0.0000000000000000 0.0000000000000000
0.0000000000000000 0.0000000000000000 0.0000000000000000
0.0000000000000000 0.0000000000000000 0.0000000000000000
0.0000000000000000 0.0000000000000000 0.0000000000000000
0.0000000000000000 0.0000000000000000 0.0000000000000000
0.0000000000000000 0.0000000000000000 0.0000000000000000
0.0000000000000000 0.0000000000000000 0.0000000000000000
0.0000000000000000 0.0000000000000000 0.0000000000000000
0.0000000000000000 0.0000000000000000 0.0000000000000000
0.0000000000000000 0.0000000000000000 0.0000000000000000
0.0000000000000000 0.0000000000000000 0.0000000000000000
0.0000000000000000 0.0000000000000000 0.0000000000000000
0.0000000000000000 0.0000000000000000 0.0000000000000000
0.0000000000000000 0.0000000000000000 0.0000000000000000
0.0000000000000000 0.0000000000000000 0.0000000000000000
0.0000000000000000 0.0000000000000000 0.0000000000000000
0.0000000000000000 0.0000000000000000 0.0000000000000000
-0.0000537694775760 0.0000731032270561 0.0000633872923553
-0.0001192527579382 0.0001058213393536 0.0000529408457704
-0.0001872359077931 0.0001258600224214 0.0000409248144577
-0.0002560100653352 0.0001442334812093 0.0000100118801962
-0.0003066634415443 0.0001359053586528 -0.0000052751791314
-0.0003352968767803 0.0001214490108364 -0.0000191095529297
-0.0003449277115250 0.0001043111417921 -0.0000258026984492
-0.0003356696072673 0.0000838782499987 -0.0000287990452792
-0.0003159008294564 0.0000750821804250 -0.0000339931949154
-0.0002911032737780 0.0000685192733051 -0.0000402050723564
-0.0002642947477506 0.0000655101173834 -0.0000464794699192
-0.0002359196609627 0.0000887772959456 -0.0000569798997761
-0.0002318740606037 0.0001085042155902 -0.0000620534757244
-0.0002284094887864 0.0001294385517103 -0.0000658512090847
-0.0002223269468553 0.0001475027443542 -0.0000731577842809
-0.0002041432594790 0.0001698015014642 -0.0000788815608362
-0.0001989807902391 0.0002013579803263 -0.0000808769749362
-0.0001928506297398 0.0002320291393680 -0.0000840536461173
-0.0001853296478117 0.0002645654508771 -0.0000878284712712
-0.0001727961252084 0.0003008509547554 -0.0000901108435135
-0.0001690602960057 0.0003421204841477 -0.0000890734334476
-0.0001602810642056 0.0003840130444511 -0.0000895056689035
-0.0001575720259892 0.0004278056282954 -0.0000886683809040
-0.0001536582901185 0.0004731843884398 -0.0000875017621046
-0.0001540365759870 0.0005190843303231 -0.0000854047696365
-0.0001522637977321 0.0005634659696612 -0.0000824244963782
-0.0001510848959639 0.0006107377938209 -0.0000773724968684
-0.0001620243060742 0.0006577443812934 -0.0000712805653961
-0.0001636566649550 0.0007012488142927 -0.0000650473827224
-0.0001646641007476 0.0007463427416749 -0.0000567995298724
-0.0001764892905094 0.0007910532611502 -0.0000454579224763
-0.0001801630194637 0.0008333553028800 -0.0000365539141742
-0.0001855340927325 0.0008776043856756 -0.0000241160945110
-0.0001958445394620 0.0009200179805090 -0.0000098454545897
-0.0001988930359630 0.0009620754796774 0.0000030226122752
-0.0002093135095833 0.0010035442928110 0.0000202018325900
-0.0002108632773111 0.0010433687780128 0.0000333399808794
-0.0002099387851292 0.0010874624387954 0.0000510373895277
0.0000644382676082 0.0001025267746432 0.0000494207992640
0.0001311358570935 0.0001353072204892 0.0000332946501775
0.0001814665128005 0.0001369325396793 0.0000180242489850
0.0002218167607688 0.0001475817896746 0.0000108377017951
0.0002567622453270 0.0001493496127473 0.0000042674645780
0.0002746321948520 0.0001418727769864 0.0000046120690573
0.0002745848084794 0.0001365978752021 0.0000142116087201
0.0002672193209580 0.0001286941975821 0.0000224777204582
0.0002506153093439 0.0001205963513883 0.0000325552669098
0.0002296452351849 0.0001160064522394 0.0000425900378414
0.0002064996663746 0.0001131237338832 0.0000541672592480
0.0001842981721360 0.0001330782696817 0.0000677597378132
0.0001835967378825 0.0001493456899092 0.0000696712701088
0.0001790668170204 0.0001641161094857 0.0000703251048452
0.0001705593446082 0.0001815959018927 0.0000700705409343
0.0001542278393646 0.0002044457137595 0.0000753702420963
0.0001548566472699 0.0002287498478698 0.0000769377652833
0.0001362567056413 0.0002489024333325 0.0000724190334217
0.0001191731511219 0.0002797182253620 0.0000773699170649
0.0001191818961490 0.0003117310746713 0.0000781951009822
0.0001026344823225 0.0003381989261811 0.0000731167075903
0.0000848117152089 0.0003729172007400 0.0000757629003072
0.0000805877739009 0.0004131595894129 0.0000767217770898
0.0000739978756641 0.0004504950630550 0.0000771103418860
0.0000676687950688 0.0004900275782061 0.0000782119030271
0.0000638715266800 0.0005293035452995 0.0000799055503580
0.0000539903638637 0.0005688812931564 0.0000813886220813
0.0000515680127388 0.0006099713616350 0.0000849947338320
0.0000476385699623 0.0006507452695606 0.0000880360099585
0.0000452226034275 0.0006915746837093 0.0000925555997784
0.0000483413221130 0.0007314706633285 0.0000977933196027
0.0000433318371357 0.0007698209850491 0.0001027274683128
0.0000571049506935 0.0008128825925377 0.0001113870098083
0.0000566756447333 0.0008450438967938 0.0001175068523154
0.0000574563344023 0.0008816804314447 0.0001252925564698
0.0000601219778525 0.0009165886122434 0.0001335968617608
0.0000581857527690 0.0009506839514229 0.0001421709280784
0.0000788444395510 0.0009923370960862 0.0001560487550930
0.0011489529517248 0.0050181392069228 -0.0000706559071126
0.0011409087602960 0.0050288049242618 -0.0000773766704196
0.0011152682209172 0.0050743833382478 -0.0000702668444759
0.0010828900768179 0.0050803205580463 -0.0000760542859043
0.0010444696096383 0.0051155329657240 -0.0000760995130711
0.0009895805332437 0.0051220150886019 -0.0000732920480020
0.0009314853323313 0.0051465355057731 -0.0000684119383216
0.0008617752757834 0.0051648797963046 -0.0000569635021549
0.0007898856896503 0.0051716590125633 -0.0000509565811114
0.0007134429881419 0.0051849797909763 -0.0000428862533471
0.0006395727437782 0.0051879773618560 -0.0000377209146205
0.0005643876881331 0.0051189006456053 -0.0000269816265561
0.0005609149271528 0.0050561275000408 -0.0000221773097583
0.0005569224593452 0.0049992684143274 -0.0000198822098211
0.0005412834832698 0.0049466241827649 -0.0000142030194391
0.0005349364557321 0.0048920224770675 -0.0000094128007513
0.0005273237066024 0.0048423896498512 -0.0000056424573566
0.0005176522254547 0.0047952133580255 -0.0000038972710588
0.0004957746036141 0.0047469226939260 0.0000004481970210
0.0004928368497364 0.0046968861331758 0.0000041118845761
0.0004674361582096 0.0046520053914837 0.0000047903716908
0.0004615445558328 0.0046003593708766 0.0000091801529953
0.0004520320064559 0.0045546377035211 0.0000099445255193
0.0004322315233444 0.0045087840854006 0.0000142606799692
0.0004272283987856 0.0044594080319256 0.0000188067888678
0.0004210039339502 0.0044141995231981 0.0000220926498025
0.0004114187079773 0.0043700109083032 0.0000267979237013
0.0004075120445830 0.0043238416171502 0.0000339833524887
0.0004037509796861 0.0042788987344587 0.0000410254875640
0.0004009668059070 0.0042340955082704 0.0000493108768900
0.0004020851152957 0.0041891477632803 0.0000586625112997
0.0003996641204419 0.0041480147015316 0.0000682846418747
0.0003954506523661 0.0041025862851166 0.0000805032924939
0.0004015437757877 0.0040541658583870 0.0000939349006818
0.0003978228804584 0.0040131957741463 0.0001059833098164
0.0003979778417914 0.0039689972535713 0.0001215505240311
0.0003939720801830 0.0039267615930864 0.0001347272744858
0.0003893007570081 0.0038844231855379 0.0001504720794767
0.0011558694224404 0.0050000001020687 -0.0000555108123088
0.0011614382887961 0.0050000001020687 -0.0000406336478556
0.0011646253465309 0.0050000001020687 -0.0000258828844154
0.0011607308307779 0.0050000001020687 -0.0000071083222134
0.0011459251802094 0.0050000001020687 0.0000082449652926
0.0011280397711592 0.0050000001020687 0.0000251242141667
0.0011111951047633 0.0050000001020687 0.0000423505675912
0.0010655643053119 0.0050000001020687 0.0000652497209130
0.0010342453731144 0.0050000001020687 0.0000740981477386
0.0010010103489888 0.0050000001020687 0.0000993741797229
0.0009584319982566 0.0050000001020687 0.0001108318391086
0.0009200091477178 0.0050000001020687 0.0001493806824308
0.0008743147875884 0.0050000001020687 0.0001694331652827
0.0008226664508488 0.0050000001020687 0.0001943671743412
0.0007505811266674 0.0050000001020687 0.0001922043585790
0.0006842541291120 0.0050000001020687 0.0001930647510311
0.0006099068462450 0.0050000001020687 0.0002071459859249
0.0005320965568875 0.0050000001020687 0.0002333809791858
0.0004602724792269 0.0050000001020687 0.0002467519630115
0.0003948377994131 0.0050000001020687 0.0002732691048633
0.0002606295725194 0.0050000003296075 0.0002696859448236
0.0001779654117998 0.0050000003296075 0.0002034247635896
0.0001207566340548 0.0050000003296075 0.0002152647638300
0.0000493653362314 0.0050000003296075 0.0002481956849230
-0.0001052983758591 0.0050000001020687 0.0003326300171310
-0.0002303634594765 0.0050000001020687 0.0002363158440902
-0.0002868089459522 0.0050000001020687 0.0002095527504474
-0.0003789420012126 0.0050000001020687 0.0001727655078257
-0.0004206305141162 0.0050000001020687 0.0000907807779822
-0.0004334426936192 0.0050000001020687 0.0001655320062111
-0.0005396054645710 0.0050000001020687 0.0001490896486300
-0.0006015468324697 0.0050000001020687 0.0001217088777698
-0.0006639115130304 0.0050000001020687 0.0001161560255076
-0.0007410733643366 0.0050000001020687 0.0001172612148215
-0.0008263175282821 0.0050000001020687 0.0000977797531510
-0.0008868754882163 0.0050000001020687 0.0000740517821722
-0.0009583552914302 0.0050000001020687 0.0000677104078131
-0.0010317105996533 0.0050000001020687 0.0000350254350420
-0.0010718166611466 0.0050000001020687 0.0000193605130941
-0.0011157904887852 0.0050000001020687 0.0000294890560697
-0.0011546033161777 0.0050000001020687 0.0000151605400435
-0.0011782162080317 0.0050000001020687 -0.0000027337521200
-0.0012075724434339 0.0050000001020687 -0.0000069739706032
-0.0012265941234184 0.0050000001020687 -0.0000333586870187
-0.0012325754028812 0.0050000001020687 -0.0000417294906443
-0.0012391490498120 0.0050000001020687 -0.0000505104404878
-0.0012433002096923 0.0050000001020687 -0.0000533821788064
-0.0012437288459235 0.0050000001020687 -0.0000651629523342
-0.0012410503727748 0.0050000001020687 -0.0000737692799341
-0.0012349927452033 0.0050263349930472 -0.0000836878334179
-0.0012174251068423 0.0050642755483252 -0.0000825523188654
-0.0011846862626297 0.0050803312225752 -0.0000773271342972
-0.0011512440270850 0.0051018357390552 -0.0000825061408544
-0.0011132298801751 0.0051308182471881 -0.0000938455676684
-0.0010545735538828 0.0051677864593960 -0.0000896419024475
-0.0009864139437644 0.0051778433444313 -0.0000833381708054
-0.0009180248097030 0.0051942650201843 -0.0000856621991754
-0.0008425251643571 0.0052079507187010 -0.0000838093341192
-0.0007645077556778 0.0052165774605441 -0.0000827801193562
-0.0006883634887171 0.0052219651355671 -0.0000824651550341
-0.0006104893561071 0.0051508703120246 -0.0000831107539761
-0.0006070701554336 0.0050849683989952 -0.0000842016678361
-0.0006021188711786 0.0050253663656704 -0.0000855082520288
-0.0005936082448815 0.0049693792714076 -0.0000875501394066
-0.0005868265776717 0.0049158959329675 -0.0000874331702991
-0.0005768835747717 0.0048656071323049 -0.0000887369375851
-0.0005623064759541 0.0048151164424064 -0.0000874751960675
-0.0005572090075535 0.0047640021331135 -0.0000866819993207
-0.0005413857860927 0.0047199446309592 -0.0000918428848855
-0.0005181753501498 0.0046743644667492 -0.0000913066673815
-0.0005086364104142 0.0046210183320706 -0.0000897758541648
-0.0004984758318644 0.0045719196013097 -0.0000894297634980
-0.0004876505488399 0.0045241618704180 -0.0000884305630220
-0.0004806664884132 0.0044761119046658 -0.0000864510738452
-0.0004600388529463 0.0044293199892628 -0.0000845245373459
-0.0004536609544135 0.0043751435750101 -0.0000785882117386
-0.0004460272648794 0.0043226749878290 -0.0000738309728773
-0.0004401959664470 0.0042717860042694 -0.0000675074033571
-0.0004316121383419 0.0042206087665055 -0.0000596391540062
-0.0004229694452509 0.0041690590859609 -0.0000520313318474
-0.0004259032274628 0.0041137567854982 -0.0000405989127311
-0.0004197975187973 0.0040686945134539 -0.0000317609693017
-0.0004137401126318 0.0040195400001518 -0.0000205349525253
-0.0004101570813083 0.0039726996244006 -0.0000093004780810
-0.0004014572380108 0.0039263971900261 0.0000018628185665
-0.0004196280014531 0.0038729578641394 0.0000179644226996
-0.0004121070117599 0.0038388441435488 0.0000302574065448
0.0003895651957540 0.0037948513794305 0.0001813911545384
0.0003945188428516 0.0037397098347803 0.0002102809399908
0.0003935251726046 0.0036863570352330 0.0002299478761254
0.0003815527031571 0.0036403982767449 0.0002474224890732
0.0003613323531770 0.0035950283859060 0.0002664184045007
0.0003550561668044 0.0035292048773959 0.0002989030760288
0.0003622245147152 0.0034490478277006 0.0003315845073959
0.0003510396209157 0.0034095898924449 0.0003487017017430
0.0003298299442827 0.0033611178646250 0.0003702619525671
0.0003114581556693 0.0032970555772464 0.0003934648358011
0.0002908263516329 0.0032536913277951 0.0004180315219937
0.0002910047445932 0.0031741183016047 0.0004578797045205
0.0002853912316688 0.0031022790364988 0.0004856250540800
0.0002767761703856 0.0030526621140156 0.0005031718431494
0.0002538527064475 0.0030171270829353 0.0005241332100247
0.0002558550787083 0.0029149235995213 0.0005584440016328
0.0002609907044913 0.0028334442039286 0.0005808996421547
0.0002524528596313 0.0027804142030423 0.0005930129375384
0.0002490766275504 0.0027178413989228 0.0006118585397216
0.0002432838240766 0.0026266949770286 0.0006209549309010
0.0002417238163561 0.0025835694481331 0.0006230592945032
0.0002334466150018 0.0025057566077681 0.0006267201388605
0.0002364747382810 0.0024301828734965 0.0006310103873208
0.0002285567897418 0.0023266775422601 0.0006352438793801
0.0002170082650065 0.0021716944943269 0.0006251492064437
0.0002263872830628 0.0021346170412005 0.0006155518583891
0.0002235956403231 0.0020606428716493 0.0006146056939951
0.0002157821085822 0.0019970670204085 0.0005982394985089
0.0002126055139705 0.0019456348502154 0.0005918939551340
0.0001786479375827 0.0018083728233269 0.0005619791416160
0.0001842734572688 0.0017613962607094 0.0005365259062637
0.0001815134241747 0.0017175692653409 0.0005145450441045
0.0001649824497108 0.0016575050778869 0.0004813854777018
0.0001661340719426 0.0016170822100447 0.0004610982503352
0.0001443376532782 0.0015277842952143 0.0004280438236719
0.0001358494973815 0.0014710078635968 0.0003924847413629
0.0001381838149672 0.0014265887204281 0.0003603070944186
0.0001436126984108 0.0013983966627746 0.0003410550615493
0.0001135501374346 0.0013291012499438 0.0003093707453856
0.0001098724687095 0.0012802117733167 0.0002837520071382
0.0001099360602353 0.0012382999630958 0.0002627416990950
0.0001086246689530 0.0012018997150625 0.0002446010421388
0.0001011258298572 0.0011627756606139 0.0002251303632194
0.0000980579688414 0.0011241162586611 0.0002093491453857
0.0000861775276197 0.0010849216067312 0.0001906737503247
0.0000880209174752 0.0010503834357601 0.0001792526138533
-0.0004094304339465 0.0037534144945548 0.0000597409687843
-0.0004074214007297 0.0037104030800267 0.0000759744380977
-0.0003980800321715 0.0036685170235985 0.0000922624442948
-0.0003847207525304 0.0036245194355728 0.0001099452200462
-0.0003946489207711 0.0035589256707061 0.0001373675996175
-0.0003691737131225 0.0035287509959936 0.0001494308079412
-0.0003920277861795 0.0034433671948825 0.0001959568184145
-0.0003652204432538 0.0034149559858515 0.0002079179211771
-0.0003323092963087 0.0033811943712380 0.0002297475561204
-0.0003443948181048 0.0033005139079182 0.0002862046813251
-0.0003427990260438 0.0032279463720722 0.0003101182965452
-0.0003165741611457 0.0032111002916027 0.0003172332887016
-0.0003199490192131 0.0031016029917526 0.0003788204495535
-0.0003138535111688 0.0030628749202878 0.0003976642695469
-0.0003029617679123 0.0030182850563739 0.0004198579103347
-0.0002886366829603 0.0029575231505669 0.0004367641431956
-0.0002732356418701 0.0029147004589702 0.0004542069748329
-0.0002726157541229 0.0028035111526585 0.0004928882594466
-0.0002584482953896 0.0027644975360481 0.0004964708539790
-0.0002454547082412 0.0027132977390136 0.0005066022931245
-0.0002331326678606 0.0026655967443625 0.0005157090989534